 Entering Gaussian System, Link 0=g16
 Initial command:
 /opt/software/gaussian/g16.c01/l1.exe "/localscratch/crowley.57109884.0/Gau-104398.inp" -scrdir="/localscratch/crowley.57109884.0/"
 Entering Link 1 = /opt/software/gaussian/g16.c01/l1.exe PID=    104404.
  
 Copyright (c) 1988-2019, Gaussian, Inc.  All Rights Reserved.
  
 This is part of the Gaussian(R) 16 program.  It is based on
 the Gaussian(R) 09 system (copyright 2009, Gaussian, Inc.),
 the Gaussian(R) 03 system (copyright 2003, Gaussian, Inc.),
 the Gaussian(R) 98 system (copyright 1998, Gaussian, Inc.),
 the Gaussian(R) 94 system (copyright 1995, Gaussian, Inc.),
 the Gaussian 92(TM) system (copyright 1992, Gaussian, Inc.),
 the Gaussian 90(TM) system (copyright 1990, Gaussian, Inc.),
 the Gaussian 88(TM) system (copyright 1988, Gaussian, Inc.),
 the Gaussian 86(TM) system (copyright 1986, Carnegie Mellon
 University), and the Gaussian 82(TM) system (copyright 1983,
 Carnegie Mellon University). Gaussian is a federally registered
 trademark of Gaussian, Inc.
  
 This software contains proprietary and confidential information,
 including trade secrets, belonging to Gaussian, Inc.
  
 This software is provided under written license and may be
 used, copied, transmitted, or stored only in accord with that
 written license.
  
 The following legend is applicable only to US Government
 contracts under FAR:
  
                    RESTRICTED RIGHTS LEGEND
  
 Use, reproduction and disclosure by the US Government is
 subject to restrictions as set forth in subparagraphs (a)
 and (c) of the Commercial Computer Software - Restricted
 Rights clause in FAR 52.227-19.
  
 Gaussian, Inc.
 340 Quinnipiac St., Bldg. 40, Wallingford CT 06492
  
  
 ---------------------------------------------------------------
 Warning -- This program may not be used in any manner that
 competes with the business of Gaussian, Inc. or will provide
 assistance to any competitor of Gaussian, Inc.  The licensee
 of this program is prohibited from giving any competitor of
 Gaussian, Inc. access to this program.  By using this program,
 the user acknowledges that Gaussian, Inc. is engaged in the
 business of creating and licensing software in the field of
 computational chemistry and represents and warrants to the
 licensee that it is not a competitor of Gaussian, Inc. and that
 it will not use this program in any manner prohibited above.
 ---------------------------------------------------------------
  

 Cite this work as:
 Gaussian 16, Revision C.01,
 M. J. Frisch, G. W. Trucks, H. B. Schlegel, G. E. Scuseria, 
 M. A. Robb, J. R. Cheeseman, G. Scalmani, V. Barone, 
 G. A. Petersson, H. Nakatsuji, X. Li, M. Caricato, A. V. Marenich, 
 J. Bloino, B. G. Janesko, R. Gomperts, B. Mennucci, H. P. Hratchian, 
 J. V. Ortiz, A. F. Izmaylov, J. L. Sonnenberg, D. Williams-Young, 
 F. Ding, F. Lipparini, F. Egidi, J. Goings, B. Peng, A. Petrone, 
 T. Henderson, D. Ranasinghe, V. G. Zakrzewski, J. Gao, N. Rega, 
 G. Zheng, W. Liang, M. Hada, M. Ehara, K. Toyota, R. Fukuda, 
 J. Hasegawa, M. Ishida, T. Nakajima, Y. Honda, O. Kitao, H. Nakai, 
 T. Vreven, K. Throssell, J. A. Montgomery, Jr., J. E. Peralta, 
 F. Ogliaro, M. J. Bearpark, J. J. Heyd, E. N. Brothers, K. N. Kudin, 
 V. N. Staroverov, T. A. Keith, R. Kobayashi, J. Normand, 
 K. Raghavachari, A. P. Rendell, J. C. Burant, S. S. Iyengar, 
 J. Tomasi, M. Cossi, J. M. Millam, M. Klene, C. Adamo, R. Cammi, 
 J. W. Ochterski, R. L. Martin, K. Morokuma, O. Farkas, 
 J. B. Foresman, and D. J. Fox, Gaussian, Inc., Wallingford CT, 2019.
 
 ******************************************
 Gaussian 16:  ES64L-G16RevC.01  3-Jul-2019
                25-Jan-2022 
 ******************************************
 %chk=ar-dimer.chk
 %nproc=8
 Will use up to    8 processors via shared memory.
 %mem=2000MB
 ------------------------------------------------
 #MP2/aug-cc-pvtz opt=modredundant counterpoise=2
 ------------------------------------------------
 1/18=120,19=15,38=1,62=2/1,3;
 2/9=110,12=2,17=6,18=5,40=1/2;
 1/18=120,19=15,38=1,53=2,62=2,63=101/22;
 3/5=16,6=1,7=10,11=9,25=1,30=1,71=1/1,2,3;
 4//1;
 5/5=2,38=5/2;
 8/6=4,10=1/1;
 9/15=2,16=-3/6;
 10/5=1/2;
 6/7=2,8=2,9=2,10=2/1;
 7/7=1,12=2,33=-1/1,2,3,16;
 1/18=120,19=15,53=2,62=2,63=101/22;
 3/5=7,6=11,7=10,11=9,25=1,30=1,71=1,82=7/1,2,3;
 4//1;
 5/5=2,38=5/2;
 8/6=4,10=1/1;
 9/15=2,16=-3/6;
 10/5=1/2;
 6/7=2,8=2,9=2,10=2/1;
 7/7=1,12=2,33=-1/1,2,3,16;
 1/18=120,19=15,53=2,62=2,63=101/22(-8);
 7/9=1,44=-1,126=2/16;
 1/18=20,19=15,62=2/3(2);
 2/9=110/2;
 99//99;
 2/9=110/2;
 1/18=20,19=15,53=3,62=2,63=101/22;
 3/5=7,6=11,7=10,11=9,25=1,30=1,71=1,82=7/1,2,3;
 4/5=5,16=3,69=1/1;
 5/5=2,38=5/2;
 8/6=4,10=1/1;
 9/15=2,16=-3/6;
 10/5=1/2;
 7/7=1,12=2,33=-1/1,2,3,16;
 1/18=20,19=15,53=3,62=2,63=101/22(-7);
 7/9=1,44=-1,126=2/16;
 1/18=20,19=15,62=2/3(-11);
 2/9=110/2;
 99/9=10/99;
 -------------------
 Title Card Required
 -------------------
 Symbolic Z-matrix:
 Charge =  0 Multiplicity = 1 in supermolecule
 Charge =  0 Multiplicity = 1 in fragment      1.
 Charge =  0 Multiplicity = 1 in fragment      2.
 Ar(Fragment=1)        0.        0.        0. 
 Ar(Fragment=2)        0.        0.        2. 
 
 The following ModRedundant input section has been read:
 B       1       2 S  80 0.1000                                                
 

 GradGradGradGradGradGradGradGradGradGradGradGradGradGradGradGradGradGrad
 Berny optimization.
 Initialization pass.
                           ----------------------------
                           !    Initial Parameters    !
                           ! (Angstroms and Degrees)  !
 --------------------------                            --------------------------
 ! Name  Definition              Value          Derivative Info.                !
 --------------------------------------------------------------------------------
 ! R1    R(1,2)                  2.0            Scan                            !
 --------------------------------------------------------------------------------
 Trust Radius=3.00D-01 FncErr=1.00D-07 GrdErr=1.00D-07 EigMax=2.50D+02 EigMin=1.00D-04
 Number of optimizations in scan=  81
 Number of steps in this run=     20 maximum allowed number of steps=    100.
 GradGradGradGradGradGradGradGradGradGradGradGradGradGradGradGradGradGrad

                          Input orientation:                          
 ---------------------------------------------------------------------
 Center     Atomic      Atomic             Coordinates (Angstroms)
 Number     Number       Type             X           Y           Z
 ---------------------------------------------------------------------
      1         18           0        0.000000    0.000000    0.000000
      2         18           0        0.000000    0.000000    2.000000
 ---------------------------------------------------------------------
 Stoichiometry    Ar2
 Framework group  D*H[C*(Ar.Ar)]
 Deg. of freedom     1
 Full point group                 D*H     NOp   8
 Largest Abelian subgroup         D2H     NOp   8
 Largest concise Abelian subgroup C2      NOp   2
                         Standard orientation:                         
 ---------------------------------------------------------------------
 Center     Atomic      Atomic             Coordinates (Angstroms)
 Number     Number       Type             X           Y           Z
 ---------------------------------------------------------------------
      1         18           0        0.000000    0.000000    1.000000
      2         18           0        0.000000    0.000000   -1.000000
 ---------------------------------------------------------------------
 Rotational constants (GHZ):           0.0000000           6.3231841           6.3231841
 Mismatch for IA=      1 IOp=  2 Frag=      1 JA=      2 Frag=      2
 Mismatch for IA=      2 IOp=  2 Frag=      2 JA=      1 Frag=      1
 Symmetry turned off in CkCPSy: fragments do not conform to real system point group.
 Returning to input orientation because symmetry turned off.
 CPIOFr:  IOpCl= 0 IRwI=-2 IRwCP=20731 ICalc=  0 LCPTot=       15519 Len1MO=       42322 IndFrg=       57841
 CPIOFr:  IOpCl= 0 IRwI= 4 IRwCP=20731 ICalc=  0 LCPTot=       15519 Len1MO=       42322 IndFrg=       57841
 Counterpoise: doing full-system calculation.
 Standard basis: Aug-CC-pVTZ (5D, 7F)
   100 basis functions,   226 primitive gaussians,   118 cartesian basis functions
    18 alpha electrons       18 beta electrons
       nuclear repulsion energy        85.7267081690 Hartrees.
 NAtoms=    2 NActive=    2 NUniq=    2 SFac= 1.00D+00 NAtFMM=   60 NAOKFM=F Big=F
 Integral buffers will be    131072 words long.
 Raffenetti 1 integral format.
 Two-electron integral symmetry is turned off.
 One-electron integrals computed using PRISM.
 NBasis=   100 RedAO= T EigKep=  8.52D-04  NBF=   100
 NBsUse=   100 1.00D-06 EigRej= -1.00D+00 NBFU=   100
 ExpMin= 4.87D-02 ExpMax= 5.45D+05 ExpMxC= 1.72D+03 IAcc=3 IRadAn=         5 AccDes= 0.00D+00
 Harris functional with IExCor=  205 and IRadAn=       5 diagonalized for initial guess.
 HarFok:  IExCor=  205 AccDes= 0.00D+00 IRadAn=         5 IDoV= 1 UseB2=F ITyADJ=14
 ICtDFT=  3500011 ScaDFX=  1.000000  1.000000  1.000000  1.000000
 FoFCou: FMM=F IPFlag=           0 FMFlag=      100000 FMFlg1=           0
         NFxFlg=           0 DoJE=T BraDBF=F KetDBF=T FulRan=T
         wScrn=  0.000000 ICntrl=       500 IOpCl=  0 I1Cent=   200000004 NGrid=           0
         NMat0=    1 NMatS0=      1 NMatT0=    0 NMatD0=    1 NMtDS0=    0 NMtDT0=    0
 Symmetry not used in FoFCou.
 Keep R1 ints in memory in canonical form, NReq=16731636.
 Requested convergence on RMS density matrix=1.00D-08 within 128 cycles.
 Requested convergence on MAX density matrix=1.00D-06.
 Requested convergence on             energy=1.00D-06.
 No special actions if energy rises.
 SCF Done:  E(RHF) =  -1053.43424169     A.U. after    9 cycles
            NFock=  9  Conv=0.99D-08     -V/T= 1.9989
 ExpMin= 4.87D-02 ExpMax= 5.45D+05 ExpMxC= 1.72D+03 IAcc=3 IRadAn=         5 AccDes= 0.00D+00
 HarFok:  IExCor=  205 AccDes= 0.00D+00 IRadAn=         5 IDoV=-2 UseB2=F ITyADJ=14
 ICtDFT= 12500011 ScaDFX=  1.000000  1.000000  1.000000  1.000000
 Range of M.O.s used for correlation:    11   100
 NBasis=   100 NAE=    18 NBE=    18 NFC=    10 NFV=     0
 NROrb=     90 NOA=     8 NOB=     8 NVA=    82 NVB=    82
 Fully direct method using O(ONN) memory.
 JobTyp=1 Pass  1:  I=  11 to  18 NPSUse=  8 ParTrn=T ParDer=T DoDerP=T.
 Spin components of T(2) and E(2):
     alpha-alpha T2 =       0.1862420274D-01 E2=     -0.5811644343D-01
     alpha-beta  T2 =       0.9447936323D-01 E2=     -0.3291398818D+00
     beta-beta   T2 =       0.1862420274D-01 E2=     -0.5811644343D-01
 ANorm=    0.1063826945D+01
 E2 =    -0.4453727686D+00 EUMP2 =    -0.10538796144545D+04
          IDoAtm=11
          Differentiating once with respect to electric field.
                with respect to dipole field.
          Differentiating once with respect to nuclear coordinates.
 Keep R1 ints in memory in canonical form, NReq=16732906.
          There are     1 degrees of freedom in the 1st order CPHF.  IDoFFX=0 NUNeed=     1.
 LinEq1:  Iter=  0 NonCon=     1 RMS=1.46D-03 Max=2.10D-02 NDo=     1
 AX will form     1 AO Fock derivatives at one time.
 LinEq1:  Iter=  1 NonCon=     1 RMS=1.86D-04 Max=2.92D-03 NDo=     1
 LinEq1:  Iter=  2 NonCon=     1 RMS=6.08D-05 Max=9.28D-04 NDo=     1
 LinEq1:  Iter=  3 NonCon=     1 RMS=9.97D-06 Max=1.46D-04 NDo=     1
 LinEq1:  Iter=  4 NonCon=     1 RMS=2.60D-06 Max=3.70D-05 NDo=     1
 LinEq1:  Iter=  5 NonCon=     1 RMS=2.31D-07 Max=4.30D-06 NDo=     1
 LinEq1:  Iter=  6 NonCon=     1 RMS=2.05D-08 Max=2.55D-07 NDo=     1
 LinEq1:  Iter=  7 NonCon=     1 RMS=2.04D-09 Max=2.86D-08 NDo=     1
 LinEq1:  Iter=  8 NonCon=     1 RMS=2.07D-10 Max=2.73D-09 NDo=     1
 LinEq1:  Iter=  9 NonCon=     0 RMS=1.55D-11 Max=1.86D-10 NDo=     1
 Linear equations converged to 1.000D-10 1.000D-09 after     9 iterations.
 End of Minotr F.D. properties file   721 does not exist.
 End of Minotr F.D. properties file   722 does not exist.
 End of Minotr F.D. properties file   788 does not exist.

 **********************************************************************

            Population analysis using the SCF Density.

 **********************************************************************

 Alpha  occ. eigenvalues -- -118.58788-118.58788 -12.30692 -12.30692  -9.55610
 Alpha  occ. eigenvalues --   -9.55603  -9.55423  -9.55423  -9.55420  -9.55420
 Alpha  occ. eigenvalues --   -1.37119  -1.22760  -0.73112  -0.64580  -0.64580
 Alpha  occ. eigenvalues --   -0.54918  -0.54918  -0.41464
 Alpha virt. eigenvalues --    0.09902   0.12388   0.12388   0.13063   0.15937
 Alpha virt. eigenvalues --    0.15937   0.15973   0.28943   0.35153   0.35153
 Alpha virt. eigenvalues --    0.38689   0.38689   0.47856   0.47856   0.49164
 Alpha virt. eigenvalues --    0.57242   0.60021   0.60021   0.69523   0.69523
 Alpha virt. eigenvalues --    0.81280   0.82247   0.82247   0.86774   0.99137
 Alpha virt. eigenvalues --    0.99137   1.01958   1.03397   1.03639   1.03639
 Alpha virt. eigenvalues --    1.09507   1.09507   1.17963   1.17963   1.27024
 Alpha virt. eigenvalues --    1.35994   1.35994   1.41753   1.41753   1.54589
 Alpha virt. eigenvalues --    1.54589   1.60886   1.63434   1.63434   1.79654
 Alpha virt. eigenvalues --    1.79654   2.03438   2.13320   2.13320   2.32667
 Alpha virt. eigenvalues --    2.87841   2.87841   2.87879   2.87879   2.89490
 Alpha virt. eigenvalues --    2.96166   2.96166   3.03359   3.03359   3.03874
 Alpha virt. eigenvalues --    3.03874   3.04453   3.15886   3.29652   3.29652
 Alpha virt. eigenvalues --    3.75407   3.75407   3.78558   3.78558   3.81630
 Alpha virt. eigenvalues --    3.81630   3.90590   3.90590   3.92688   3.92688
 Alpha virt. eigenvalues --    3.94865   3.99314   4.05408   4.05408   4.62055
 Alpha virt. eigenvalues --    6.38912   8.08746
          Condensed to atoms (all electrons):
               1          2
     1  Ar  18.789291  -0.789291
     2  Ar  -0.789291  18.789291
 Mulliken charges:
               1
     1  Ar  -0.000000
     2  Ar   0.000000
 Sum of Mulliken charges =  -0.00000
 Mulliken charges with hydrogens summed into heavy atoms:
               1
     1  Ar  -0.000000
     2  Ar   0.000000
         Mulliken charges condensed to fragments:
      1     -0.000000
      2      0.000000
 Electronic spatial extent (au):  <R**2>=            310.5352
 Charge=             -0.0000 electrons
 Dipole moment (field-independent basis, Debye):
    X=              0.0000    Y=              0.0000    Z=              0.0000  Tot=              0.0000
 Quadrupole moment (field-independent basis, Debye-Ang):
   XX=            -23.0434   YY=            -23.0434   ZZ=            -25.7629
   XY=              0.0000   XZ=             -0.0000   YZ=              0.0000
 Traceless Quadrupole moment (field-independent basis, Debye-Ang):
   XX=              0.9065   YY=              0.9065   ZZ=             -1.8130
   XY=              0.0000   XZ=             -0.0000   YZ=              0.0000
 Octapole moment (field-independent basis, Debye-Ang**2):
  XXX=              0.0000  YYY=              0.0000  ZZZ=            -77.2887  XYY=             -0.0000
  XXY=              0.0000  XXZ=            -23.0434  XZZ=             -0.0000  YZZ=              0.0000
  YYZ=            -23.0434  XYZ=              0.0000
 Hexadecapole moment (field-independent basis, Debye-Ang**3):
 XXXX=            -21.1626 YYYY=            -21.1626 ZZZZ=           -331.2420 XXXY=              0.0000
 XXXZ=             -0.0000 YYYX=              0.0000 YYYZ=              0.0000 ZZZX=             -0.0000
 ZZZY=              0.0000 XXYY=             -7.0542 XXZZ=            -54.5752 YYZZ=            -54.5752
 XXYZ=              0.0000 YYXZ=             -0.0000 ZZXY=              0.0000
 N-N= 8.572670816904D+01 E-N=-2.682454976037D+03  KE= 1.054639298275D+03
 Calling FoFJK, ICntrl=  10002127 FMM=F ISym2X=0 I1Cent= 0 IOpClX= 0 NMat=1 NMatS=1 NMatT=0.
 Cartesian Forces:  Max     0.301520830 RMS     0.174083132
 CPIOFr:  IOpCl= 0 IRwI=-1 IRwCP=  731 ICalc= -1 LCPTot=       15519 Len1MO=       42322 IndFrg=       15519
 CPIOFr:  IOpCl= 0 IRwI=-1 IRwCP=  731 ICalc=  0 LCPTot=       15519 Len1MO=       42322 IndFrg=       57841
 CPIOFr:  IOpCl= 0 IRwI=-2 IRwCP=20731 ICalc=  1 LCPTot=       15519 Len1MO=       42322 IndFrg=      100163
 CPIOFr:  IOpCl= 0 IRwI= 4 IRwCP=20731 ICalc=  1 LCPTot=       15519 Len1MO=       42322 IndFrg=      100163
 Counterpoise: doing calculation for fragment   1 using the basis set of the full-system, NewBq=T
 Basis read from rwf:  (5D, 7F)
   100 basis functions,   226 primitive gaussians,   118 cartesian basis functions
     9 alpha electrons        9 beta electrons
       nuclear repulsion energy         0.0000000000 Hartrees.
 NAtoms=    2 NActive=    2 NUniq=    2 SFac= 1.00D+00 NAtFMM=   60 NAOKFM=F Big=F
 Integral buffers will be    131072 words long.
 Raffenetti 1 integral format.
 Two-electron integral symmetry is turned off.
 One-electron integrals computed using PRISM.
 NBasis=   100 RedAO= T EigKep=  8.52D-04  NBF=   100
 NBsUse=   100 1.00D-06 EigRej= -1.00D+00 NBFU=   100
 ExpMin= 4.87D-02 ExpMax= 5.45D+05 ExpMxC= 1.72D+03 IAcc=3 IRadAn=         5 AccDes= 0.00D+00
 Harris functional with IExCor=  205 and IRadAn=       5 diagonalized for initial guess.
 HarFok:  IExCor=  205 AccDes= 0.00D+00 IRadAn=         5 IDoV= 1 UseB2=F ITyADJ=14
 ICtDFT=  3500011 ScaDFX=  1.000000  1.000000  1.000000  1.000000
 FoFCou: FMM=F IPFlag=           0 FMFlag=      100000 FMFlg1=           0
         NFxFlg=           0 DoJE=T BraDBF=F KetDBF=T FulRan=T
         wScrn=  0.000000 ICntrl=       500 IOpCl=  0 I1Cent=   200000004 NGrid=           0
         NMat0=    1 NMatS0=      1 NMatT0=    0 NMatD0=    1 NMtDS0=    0 NMtDT0=    0
 Symmetry not used in FoFCou.
 Keep R1 ints in memory in canonical form, NReq=16731636.
 Requested convergence on RMS density matrix=1.00D-08 within 128 cycles.
 Requested convergence on MAX density matrix=1.00D-06.
 Requested convergence on             energy=1.00D-06.
 No special actions if energy rises.
 SCF Done:  E(RHF) =  -526.813428603     A.U. after    7 cycles
            NFock=  7  Conv=0.47D-08     -V/T= 2.0000
 ExpMin= 4.87D-02 ExpMax= 5.45D+05 ExpMxC= 1.72D+03 IAcc=3 IRadAn=         5 AccDes= 0.00D+00
 HarFok:  IExCor=  205 AccDes= 0.00D+00 IRadAn=         5 IDoV=-2 UseB2=F ITyADJ=14
 ICtDFT= 12500011 ScaDFX=  1.000000  1.000000  1.000000  1.000000
 Range of M.O.s used for correlation:     6   100
 NBasis=   100 NAE=     9 NBE=     9 NFC=     5 NFV=     0
 NROrb=     95 NOA=     4 NOB=     4 NVA=    91 NVB=    91
 Fully direct method using O(ONN) memory.
 JobTyp=1 Pass  1:  I=   6 to   9 NPSUse=  8 ParTrn=T ParDer=T DoDerP=T.
 Spin components of T(2) and E(2):
     alpha-alpha T2 =       0.8459797782D-02 E2=     -0.2641240081D-01
     alpha-beta  T2 =       0.4566254947D-01 E2=     -0.1591385358D+00
     beta-beta   T2 =       0.8459797782D-02 E2=     -0.2641240081D-01
 ANorm=    0.1030816252D+01
 E2 =    -0.2119633375D+00 EUMP2 =    -0.52702539194073D+03
          IDoAtm=11
          Differentiating once with respect to electric field.
                with respect to dipole field.
          Differentiating once with respect to nuclear coordinates.
 Keep R1 ints in memory in canonical form, NReq=16732911.
          There are     1 degrees of freedom in the 1st order CPHF.  IDoFFX=0 NUNeed=     1.
 LinEq1:  Iter=  0 NonCon=     1 RMS=7.55D-04 Max=6.32D-03 NDo=     1
 AX will form     1 AO Fock derivatives at one time.
 LinEq1:  Iter=  1 NonCon=     1 RMS=2.09D-04 Max=1.66D-03 NDo=     1
 LinEq1:  Iter=  2 NonCon=     1 RMS=1.90D-05 Max=1.56D-04 NDo=     1
 LinEq1:  Iter=  3 NonCon=     1 RMS=8.93D-07 Max=8.87D-06 NDo=     1
 LinEq1:  Iter=  4 NonCon=     1 RMS=1.39D-07 Max=1.18D-06 NDo=     1
 LinEq1:  Iter=  5 NonCon=     1 RMS=2.23D-08 Max=2.63D-07 NDo=     1
 LinEq1:  Iter=  6 NonCon=     1 RMS=4.48D-09 Max=3.89D-08 NDo=     1
 LinEq1:  Iter=  7 NonCon=     1 RMS=8.27D-10 Max=9.84D-09 NDo=     1
 LinEq1:  Iter=  8 NonCon=     0 RMS=8.49D-11 Max=8.11D-10 NDo=     1
 Linear equations converged to 1.000D-10 1.000D-09 after     8 iterations.
 End of Minotr F.D. properties file   721 does not exist.
 End of Minotr F.D. properties file   722 does not exist.
 End of Minotr F.D. properties file   788 does not exist.

 **********************************************************************

            Population analysis using the SCF Density.

 **********************************************************************

 Alpha  occ. eigenvalues -- -118.61220 -12.32311  -9.57210  -9.57210  -9.57206
 Alpha  occ. eigenvalues --   -1.27779  -0.59131  -0.59127  -0.59127
 Alpha virt. eigenvalues --    0.08085   0.10586   0.11534   0.11534   0.15372
 Alpha virt. eigenvalues --    0.15372   0.16909   0.25597   0.39848   0.39848
 Alpha virt. eigenvalues --    0.41859   0.41859   0.43233   0.50181   0.52041
 Alpha virt. eigenvalues --    0.52041   0.57383   0.57383   0.59013   0.67588
 Alpha virt. eigenvalues --    0.67588   0.79514   0.80979   0.80979   0.85907
 Alpha virt. eigenvalues --    1.07026   1.07026   1.08447   1.08447   1.11508
 Alpha virt. eigenvalues --    1.31065   1.44868   1.44868   1.47011   1.47011
 Alpha virt. eigenvalues --    1.51880   1.51911   1.51911   1.66736   1.66736
 Alpha virt. eigenvalues --    1.69644   1.69644   1.79104   1.79104   1.83860
 Alpha virt. eigenvalues --    1.90167   1.92666   1.92666   1.93175   1.93175
 Alpha virt. eigenvalues --    2.24967   2.29639   2.29639   2.58281   2.92119
 Alpha virt. eigenvalues --    2.92119   3.01963   3.01963   3.04342   3.14197
 Alpha virt. eigenvalues --    3.14197   3.73417   3.78583   3.78583   3.85158
 Alpha virt. eigenvalues --    3.85158   4.00018   4.00018   4.02105   4.66660
 Alpha virt. eigenvalues --    4.66660   4.90820   5.00038   5.00038   5.06678
 Alpha virt. eigenvalues --    5.06678   5.17542   5.22579   5.22579   5.52184
 Alpha virt. eigenvalues --    5.60641   5.60641   5.71006   5.71006   6.13769
 Alpha virt. eigenvalues --    7.41570  17.32393  32.16594  32.16594  32.68130
 Alpha virt. eigenvalues --  181.53738
          Condensed to atoms (all electrons):
               1          2
     1  Ar  18.060919  -0.031078
     2  Ar  -0.031078   0.001237
 Mulliken charges:
               1
     1  Ar  -0.029841
     2  Ar   0.029841
 Sum of Mulliken charges =  -0.00000
 Mulliken charges with hydrogens summed into heavy atoms:
               1
     1  Ar  -0.029841
     2  Ar   0.029841
         Mulliken charges condensed to fragments:
      1     -0.029841
      2      0.029841
 Electronic spatial extent (au):  <R**2>=             26.0618
 Charge=             -0.0000 electrons
 Dipole moment (field-independent basis, Debye):
    X=              0.0000    Y=             -0.0000    Z=              0.0010  Tot=              0.0010
 Quadrupole moment (field-independent basis, Debye-Ang):
   XX=            -11.6898   YY=            -11.6898   ZZ=            -11.6744
   XY=             -0.0000   XZ=             -0.0000   YZ=             -0.0000
 Traceless Quadrupole moment (field-independent basis, Debye-Ang):
   XX=             -0.0051   YY=             -0.0051   ZZ=              0.0102
   XY=             -0.0000   XZ=             -0.0000   YZ=             -0.0000
 Octapole moment (field-independent basis, Debye-Ang**2):
  XXX=              0.0000  YYY=             -0.0000  ZZZ=              0.0017  XYY=              0.0000
  XXY=             -0.0000  XXZ=             -0.0003  XZZ=             -0.0000  YZZ=              0.0000
  YYZ=             -0.0003  XYZ=             -0.0000
 Hexadecapole moment (field-independent basis, Debye-Ang**3):
 XXXX=            -10.9359 YYYY=            -10.9359 ZZZZ=            -10.9122 XXXY=             -0.0000
 XXXZ=             -0.0000 YYYX=             -0.0000 YYYZ=             -0.0000 ZZZX=             -0.0000
 ZZZY=             -0.0000 XXYY=             -3.6453 XXZZ=             -3.6358 YYZZ=             -3.6358
 XXYZ=             -0.0000 YYXZ=             -0.0000 ZZXY=             -0.0000
 N-N= 0.000000000000D+00 E-N=-1.255010717425D+03  KE= 5.267902720368D+02
 Calling FoFJK, ICntrl=  10002127 FMM=F ISym2X=0 I1Cent= 0 IOpClX= 0 NMat=1 NMatS=1 NMatT=0.
 Cartesian Forces:  Max     0.001217547 RMS     0.000702951
 CPIOFr:  IOpCl= 0 IRwI=-1 IRwCP=  731 ICalc=  1 LCPTot=       15519 Len1MO=       42322 IndFrg=      100163
 CPIOFr:  IOpCl= 0 IRwI=-2 IRwCP=20731 ICalc=  2 LCPTot=       15519 Len1MO=       42322 IndFrg=      142485
 CPIOFr:  IOpCl= 0 IRwI= 4 IRwCP=20731 ICalc=  2 LCPTot=       15519 Len1MO=       42322 IndFrg=      142485
 Counterpoise: doing calculation for fragment   2 using the basis set of the full-system, NewBq=T
 Basis read from rwf:  (5D, 7F)
   100 basis functions,   226 primitive gaussians,   118 cartesian basis functions
     9 alpha electrons        9 beta electrons
       nuclear repulsion energy         0.0000000000 Hartrees.
 NAtoms=    2 NActive=    2 NUniq=    2 SFac= 1.00D+00 NAtFMM=   60 NAOKFM=F Big=F
 Integral buffers will be    131072 words long.
 Raffenetti 1 integral format.
 Two-electron integral symmetry is turned off.
 One-electron integrals computed using PRISM.
 NBasis=   100 RedAO= T EigKep=  8.52D-04  NBF=   100
 NBsUse=   100 1.00D-06 EigRej= -1.00D+00 NBFU=   100
 ExpMin= 4.87D-02 ExpMax= 5.45D+05 ExpMxC= 1.72D+03 IAcc=3 IRadAn=         5 AccDes= 0.00D+00
 Harris functional with IExCor=  205 and IRadAn=       5 diagonalized for initial guess.
 HarFok:  IExCor=  205 AccDes= 0.00D+00 IRadAn=         5 IDoV= 1 UseB2=F ITyADJ=14
 ICtDFT=  3500011 ScaDFX=  1.000000  1.000000  1.000000  1.000000
 FoFCou: FMM=F IPFlag=           0 FMFlag=      100000 FMFlg1=           0
         NFxFlg=           0 DoJE=T BraDBF=F KetDBF=T FulRan=T
         wScrn=  0.000000 ICntrl=       500 IOpCl=  0 I1Cent=   200000004 NGrid=           0
         NMat0=    1 NMatS0=      1 NMatT0=    0 NMatD0=    1 NMtDS0=    0 NMtDT0=    0
 Symmetry not used in FoFCou.
 Keep R1 ints in memory in canonical form, NReq=16731636.
 Requested convergence on RMS density matrix=1.00D-08 within 128 cycles.
 Requested convergence on MAX density matrix=1.00D-06.
 Requested convergence on             energy=1.00D-06.
 No special actions if energy rises.
 SCF Done:  E(RHF) =  -526.813428603     A.U. after    7 cycles
            NFock=  7  Conv=0.47D-08     -V/T= 2.0000
 ExpMin= 4.87D-02 ExpMax= 5.45D+05 ExpMxC= 1.72D+03 IAcc=3 IRadAn=         5 AccDes= 0.00D+00
 HarFok:  IExCor=  205 AccDes= 0.00D+00 IRadAn=         5 IDoV=-2 UseB2=F ITyADJ=14
 ICtDFT= 12500011 ScaDFX=  1.000000  1.000000  1.000000  1.000000
 Range of M.O.s used for correlation:     6   100
 NBasis=   100 NAE=     9 NBE=     9 NFC=     5 NFV=     0
 NROrb=     95 NOA=     4 NOB=     4 NVA=    91 NVB=    91
 Fully direct method using O(ONN) memory.
 JobTyp=1 Pass  1:  I=   6 to   9 NPSUse=  8 ParTrn=T ParDer=T DoDerP=T.
 Spin components of T(2) and E(2):
     alpha-alpha T2 =       0.8459797782D-02 E2=     -0.2641240081D-01
     alpha-beta  T2 =       0.4566254947D-01 E2=     -0.1591385358D+00
     beta-beta   T2 =       0.8459797782D-02 E2=     -0.2641240081D-01
 ANorm=    0.1030816252D+01
 E2 =    -0.2119633375D+00 EUMP2 =    -0.52702539194072D+03
          IDoAtm=11
          Differentiating once with respect to electric field.
                with respect to dipole field.
          Differentiating once with respect to nuclear coordinates.
 Keep R1 ints in memory in canonical form, NReq=16732911.
          There are     1 degrees of freedom in the 1st order CPHF.  IDoFFX=0 NUNeed=     1.
 LinEq1:  Iter=  0 NonCon=     1 RMS=7.55D-04 Max=6.32D-03 NDo=     1
 AX will form     1 AO Fock derivatives at one time.
 LinEq1:  Iter=  1 NonCon=     1 RMS=2.09D-04 Max=1.54D-03 NDo=     1
 LinEq1:  Iter=  2 NonCon=     1 RMS=1.90D-05 Max=1.20D-04 NDo=     1
 LinEq1:  Iter=  3 NonCon=     1 RMS=8.93D-07 Max=8.87D-06 NDo=     1
 LinEq1:  Iter=  4 NonCon=     1 RMS=1.39D-07 Max=1.17D-06 NDo=     1
 LinEq1:  Iter=  5 NonCon=     1 RMS=2.23D-08 Max=2.63D-07 NDo=     1
 LinEq1:  Iter=  6 NonCon=     1 RMS=4.48D-09 Max=3.89D-08 NDo=     1
 LinEq1:  Iter=  7 NonCon=     1 RMS=8.27D-10 Max=9.84D-09 NDo=     1
 LinEq1:  Iter=  8 NonCon=     0 RMS=8.49D-11 Max=8.11D-10 NDo=     1
 Linear equations converged to 1.000D-10 1.000D-09 after     8 iterations.
 End of Minotr F.D. properties file   721 does not exist.
 End of Minotr F.D. properties file   722 does not exist.
 End of Minotr F.D. properties file   788 does not exist.

 **********************************************************************

            Population analysis using the SCF Density.

 **********************************************************************

 Alpha  occ. eigenvalues -- -118.61220 -12.32311  -9.57210  -9.57210  -9.57206
 Alpha  occ. eigenvalues --   -1.27779  -0.59131  -0.59127  -0.59127
 Alpha virt. eigenvalues --    0.08085   0.10586   0.11534   0.11534   0.15372
 Alpha virt. eigenvalues --    0.15372   0.16909   0.25597   0.39848   0.39848
 Alpha virt. eigenvalues --    0.41859   0.41859   0.43233   0.50181   0.52041
 Alpha virt. eigenvalues --    0.52041   0.57383   0.57383   0.59013   0.67588
 Alpha virt. eigenvalues --    0.67588   0.79514   0.80979   0.80979   0.85907
 Alpha virt. eigenvalues --    1.07026   1.07026   1.08447   1.08447   1.11508
 Alpha virt. eigenvalues --    1.31065   1.44868   1.44868   1.47011   1.47011
 Alpha virt. eigenvalues --    1.51880   1.51911   1.51911   1.66736   1.66736
 Alpha virt. eigenvalues --    1.69644   1.69644   1.79104   1.79104   1.83860
 Alpha virt. eigenvalues --    1.90167   1.92666   1.92666   1.93175   1.93175
 Alpha virt. eigenvalues --    2.24967   2.29639   2.29639   2.58281   2.92119
 Alpha virt. eigenvalues --    2.92119   3.01963   3.01963   3.04342   3.14197
 Alpha virt. eigenvalues --    3.14197   3.73417   3.78583   3.78583   3.85158
 Alpha virt. eigenvalues --    3.85158   4.00018   4.00018   4.02105   4.66660
 Alpha virt. eigenvalues --    4.66660   4.90820   5.00038   5.00038   5.06678
 Alpha virt. eigenvalues --    5.06678   5.17542   5.22579   5.22579   5.52184
 Alpha virt. eigenvalues --    5.60641   5.60641   5.71006   5.71006   6.13769
 Alpha virt. eigenvalues --    7.41570  17.32393  32.16594  32.16594  32.68130
 Alpha virt. eigenvalues --  181.53738
          Condensed to atoms (all electrons):
               1          2
     1  Ar   0.001237  -0.031078
     2  Ar  -0.031078  18.060919
 Mulliken charges:
               1
     1  Ar   0.029841
     2  Ar  -0.029841
 Sum of Mulliken charges =   0.00000
 Mulliken charges with hydrogens summed into heavy atoms:
               1
     1  Ar   0.029841
     2  Ar  -0.029841
         Mulliken charges condensed to fragments:
      1      0.029841
      2     -0.029841
 Electronic spatial extent (au):  <R**2>=            283.1813
 Charge=              0.0000 electrons
 Dipole moment (field-independent basis, Debye):
    X=              0.0000    Y=              0.0000    Z=             -0.0010  Tot=              0.0010
 Quadrupole moment (field-independent basis, Debye-Ang):
   XX=            -11.6898   YY=            -11.6898   ZZ=            -11.6783
   XY=             -0.0000   XZ=              0.0000   YZ=              0.0000
 Traceless Quadrupole moment (field-independent basis, Debye-Ang):
   XX=             -0.0038   YY=             -0.0038   ZZ=              0.0076
   XY=             -0.0000   XZ=              0.0000   YZ=              0.0000
 Octapole moment (field-independent basis, Debye-Ang**2):
  XXX=              0.0000  YYY=             -0.0000  ZZZ=            -70.0600  XYY=              0.0000
  XXY=             -0.0000  XXZ=            -23.3792  XZZ=              0.0000  YZZ=              0.0000
  YYZ=            -23.3792  XYZ=             -0.0000
 Hexadecapole moment (field-independent basis, Debye-Ang**3):
 XXXX=            -10.9359 YYYY=            -10.9359 ZZZZ=           -291.1434 XXXY=              0.0000
 XXXZ=              0.0000 YYYX=              0.0000 YYYZ=              0.0000 ZZZX=              0.0000
 ZZZY=              0.0000 XXYY=             -3.6453 XXZZ=            -50.3937 YYZZ=            -50.3937
 XXYZ=              0.0000 YYXZ=              0.0000 ZZXY=             -0.0000
 N-N= 0.000000000000D+00 E-N=-1.255010717425D+03  KE= 5.267902720368D+02
 Calling FoFJK, ICntrl=  10002127 FMM=F ISym2X=0 I1Cent= 0 IOpClX= 0 NMat=1 NMatS=1 NMatT=0.
 Cartesian Forces:  Max     0.001217547 RMS     0.000702951
 CPIOFr:  IOpCl= 0 IRwI=-1 IRwCP=  731 ICalc=  2 LCPTot=       15519 Len1MO=       42322 IndFrg=      142485
 CPIOFr:  IOpCl= 0 IRwI=-2 IRwCP=20731 ICalc=  3 LCPTot=       15519 Len1MO=       42322 IndFrg=      184807
 CPIOFr:  IOpCl= 0 IRwI= 4 IRwCP=20731 ICalc=  3 LCPTot=       15519 Len1MO=       42322 IndFrg=      184807
 Counterpoise: doing calculation for fragment   1 using the basis set of the fragment.
 Basis read from rwf:  (5D, 7F)
    50 basis functions,   113 primitive gaussians,    59 cartesian basis functions
     9 alpha electrons        9 beta electrons
       nuclear repulsion energy         0.0000000000 Hartrees.
 NAtoms=    2 NActive=    1 NUniq=    1 SFac= 1.00D+00 NAtFMM=   60 NAOKFM=F Big=F
 Integral buffers will be    131072 words long.
 Raffenetti 1 integral format.
 Two-electron integral symmetry is turned off.
 One-electron integrals computed using PRISM.
 NBasis=    50 RedAO= T EigKep=  1.65D-02  NBF=    50
 NBsUse=    50 1.00D-06 EigRej= -1.00D+00 NBFU=    50
 ExpMin= 4.87D-02 ExpMax= 5.45D+05 ExpMxC= 1.72D+03 IAcc=3 IRadAn=         5 AccDes= 0.00D+00
 Harris functional with IExCor=  205 and IRadAn=       5 diagonalized for initial guess.
 HarFok:  IExCor=  205 AccDes= 0.00D+00 IRadAn=         5 IDoV= 1 UseB2=F ITyADJ=14
 ICtDFT=  3500011 ScaDFX=  1.000000  1.000000  1.000000  1.000000
 FoFCou: FMM=F IPFlag=           0 FMFlag=      100000 FMFlg1=           0
         NFxFlg=           0 DoJE=T BraDBF=F KetDBF=T FulRan=T
         wScrn=  0.000000 ICntrl=       500 IOpCl=  0 I1Cent=   200000004 NGrid=           0
         NMat0=    1 NMatS0=      1 NMatT0=    0 NMatD0=    1 NMtDS0=    0 NMtDT0=    0
 Symmetry not used in FoFCou.
 Keep R1 ints in memory in canonical form, NReq=4735720.
 Requested convergence on RMS density matrix=1.00D-08 within 128 cycles.
 Requested convergence on MAX density matrix=1.00D-06.
 Requested convergence on             energy=1.00D-06.
 No special actions if energy rises.
 SCF Done:  E(RHF) =  -526.813352014     A.U. after    7 cycles
            NFock=  7  Conv=0.46D-08     -V/T= 2.0000
 ExpMin= 4.87D-02 ExpMax= 5.45D+05 ExpMxC= 1.72D+03 IAcc=3 IRadAn=         5 AccDes= 0.00D+00
 HarFok:  IExCor=  205 AccDes= 0.00D+00 IRadAn=         5 IDoV=-2 UseB2=F ITyADJ=14
 ICtDFT= 12500011 ScaDFX=  1.000000  1.000000  1.000000  1.000000
 Range of M.O.s used for correlation:     6    50
 NBasis=    50 NAE=     9 NBE=     9 NFC=     5 NFV=     0
 NROrb=     45 NOA=     4 NOB=     4 NVA=    41 NVB=    41
 Fully direct method using O(ONN) memory.
 JobTyp=1 Pass  1:  I=   6 to   9 NPSUse=  8 ParTrn=T ParDer=T DoDerP=T.
 Spin components of T(2) and E(2):
     alpha-alpha T2 =       0.8455470415D-02 E2=     -0.2637686087D-01
     alpha-beta  T2 =       0.4551898029D-01 E2=     -0.1581775121D+00
     beta-beta   T2 =       0.8455470415D-02 E2=     -0.2637686087D-01
 ANorm=    0.1030742413D+01
 E2 =    -0.2109312338D+00 EUMP2 =    -0.52702428324739D+03
          IDoAtm=10
          Differentiating once with respect to electric field.
                with respect to dipole field.
          Differentiating once with respect to nuclear coordinates.
 Keep R1 ints in memory in canonical form, NReq=4736237.
          There are     1 degrees of freedom in the 1st order CPHF.  IDoFFX=0 NUNeed=     1.
 LinEq1:  Iter=  0 NonCon=     1 RMS=1.12D-03 Max=1.06D-02 NDo=     1
 AX will form     1 AO Fock derivatives at one time.
 LinEq1:  Iter=  1 NonCon=     1 RMS=3.19D-04 Max=2.19D-03 NDo=     1
 LinEq1:  Iter=  2 NonCon=     1 RMS=2.90D-05 Max=2.08D-04 NDo=     1
 LinEq1:  Iter=  3 NonCon=     1 RMS=1.01D-06 Max=1.25D-05 NDo=     1
 LinEq1:  Iter=  4 NonCon=     1 RMS=7.56D-08 Max=6.92D-07 NDo=     1
 LinEq1:  Iter=  5 NonCon=     1 RMS=5.69D-09 Max=9.14D-08 NDo=     1
 LinEq1:  Iter=  6 NonCon=     1 RMS=2.08D-10 Max=2.67D-09 NDo=     1
 LinEq1:  Iter=  7 NonCon=     0 RMS=4.59D-12 Max=5.43D-11 NDo=     1
 Linear equations converged to 1.000D-10 1.000D-09 after     7 iterations.
 End of Minotr F.D. properties file   721 does not exist.
 End of Minotr F.D. properties file   722 does not exist.
 End of Minotr F.D. properties file   788 does not exist.

 **********************************************************************

            Population analysis using the SCF Density.

 **********************************************************************

 Alpha  occ. eigenvalues -- -118.61206 -12.32316  -9.57213  -9.57213  -9.57213
 Alpha  occ. eigenvalues --   -1.27789  -0.59137  -0.59137  -0.59137
 Alpha virt. eigenvalues --    0.12976   0.12976   0.12976   0.14535   0.40892
 Alpha virt. eigenvalues --    0.40892   0.40892   0.40892   0.40892   0.71022
 Alpha virt. eigenvalues --    0.71022   0.71022   1.06183   1.06183   1.06183
 Alpha virt. eigenvalues --    1.06183   1.06183   1.06544   1.48701   1.48701
 Alpha virt. eigenvalues --    1.48701   1.48701   1.48701   1.48701   1.48701
 Alpha virt. eigenvalues --    2.90934   2.90934   2.90934   2.90934   2.90934
 Alpha virt. eigenvalues --    3.03684   3.03684   3.03684   3.78243   3.78243
 Alpha virt. eigenvalues --    3.78243   3.78243   3.78243   3.78243   3.78243
 Alpha virt. eigenvalues --    6.01231
          Condensed to atoms (all electrons):
               1
     1  Ar  18.000000
 Mulliken charges:
               1
     1  Ar   0.000000
     2  Ar   0.000000
 Sum of Mulliken charges =   0.00000
 Mulliken charges with hydrogens summed into heavy atoms:
               1
     1  Ar   0.000000
     2  Ar   0.000000
         Mulliken charges condensed to fragments:
      1      0.000000
      2      0.000000
 Electronic spatial extent (au):  <R**2>=             26.0685
 Charge=              0.0000 electrons
 Dipole moment (field-independent basis, Debye):
    X=              0.0000    Y=              0.0000    Z=              0.0000  Tot=              0.0000
 Quadrupole moment (field-independent basis, Debye-Ang):
   XX=            -11.6877   YY=            -11.6877   ZZ=            -11.6877
   XY=             -0.0000   XZ=             -0.0000   YZ=              0.0000
 Traceless Quadrupole moment (field-independent basis, Debye-Ang):
   XX=             -0.0000   YY=             -0.0000   ZZ=              0.0000
   XY=             -0.0000   XZ=             -0.0000   YZ=              0.0000
 Octapole moment (field-independent basis, Debye-Ang**2):
  XXX=              0.0000  YYY=              0.0000  ZZZ=              0.0000  XYY=              0.0000
  XXY=              0.0000  XXZ=              0.0000  XZZ=              0.0000  YZZ=             -0.0000
  YYZ=              0.0000  XYZ=             -0.0000
 Hexadecapole moment (field-independent basis, Debye-Ang**3):
 XXXX=            -10.9212 YYYY=            -10.9212 ZZZZ=            -10.9212 XXXY=             -0.0000
 XXXZ=             -0.0000 YYYX=             -0.0000 YYYZ=              0.0000 ZZZX=             -0.0000
 ZZZY=              0.0000 XXYY=             -3.6404 XXZZ=             -3.6404 YYZZ=             -3.6404
 XXYZ=              0.0000 YYXZ=             -0.0000 ZZXY=             -0.0000
 N-N= 0.000000000000D+00 E-N=-1.255014475666D+03  KE= 5.267950039559D+02
 Calling FoFJK, ICntrl=  10002127 FMM=F ISym2X=0 I1Cent= 0 IOpClX= 0 NMat=1 NMatS=1 NMatT=0.
 Cartesian Forces:  Max     0.000000000 RMS     0.000000000
 CPIOFr:  IOpCl= 0 IRwI=-1 IRwCP=  731 ICalc=  3 LCPTot=       15519 Len1MO=       42322 IndFrg=      184807
 CPIOFr:  IOpCl= 0 IRwI=-2 IRwCP=20731 ICalc=  4 LCPTot=       15519 Len1MO=       42322 IndFrg=      227129
 CPIOFr:  IOpCl= 0 IRwI= 4 IRwCP=20731 ICalc=  4 LCPTot=       15519 Len1MO=       42322 IndFrg=      227129
 Counterpoise: doing calculation for fragment   2 using the basis set of the fragment.
 Basis read from rwf:  (5D, 7F)
    50 basis functions,   113 primitive gaussians,    59 cartesian basis functions
     9 alpha electrons        9 beta electrons
       nuclear repulsion energy         0.0000000000 Hartrees.
 NAtoms=    2 NActive=    1 NUniq=    1 SFac= 1.00D+00 NAtFMM=   60 NAOKFM=F Big=F
 Integral buffers will be    131072 words long.
 Raffenetti 1 integral format.
 Two-electron integral symmetry is turned off.
 One-electron integrals computed using PRISM.
 NBasis=    50 RedAO= T EigKep=  1.65D-02  NBF=    50
 NBsUse=    50 1.00D-06 EigRej= -1.00D+00 NBFU=    50
 ExpMin= 4.87D-02 ExpMax= 5.45D+05 ExpMxC= 1.72D+03 IAcc=3 IRadAn=         5 AccDes= 0.00D+00
 Harris functional with IExCor=  205 and IRadAn=       5 diagonalized for initial guess.
 HarFok:  IExCor=  205 AccDes= 0.00D+00 IRadAn=         5 IDoV= 1 UseB2=F ITyADJ=14
 ICtDFT=  3500011 ScaDFX=  1.000000  1.000000  1.000000  1.000000
 FoFCou: FMM=F IPFlag=           0 FMFlag=      100000 FMFlg1=           0
         NFxFlg=           0 DoJE=T BraDBF=F KetDBF=T FulRan=T
         wScrn=  0.000000 ICntrl=       500 IOpCl=  0 I1Cent=   200000004 NGrid=           0
         NMat0=    1 NMatS0=      1 NMatT0=    0 NMatD0=    1 NMtDS0=    0 NMtDT0=    0
 Symmetry not used in FoFCou.
 Keep R1 ints in memory in canonical form, NReq=4735720.
 Requested convergence on RMS density matrix=1.00D-08 within 128 cycles.
 Requested convergence on MAX density matrix=1.00D-06.
 Requested convergence on             energy=1.00D-06.
 No special actions if energy rises.
 SCF Done:  E(RHF) =  -526.813352014     A.U. after    7 cycles
            NFock=  7  Conv=0.46D-08     -V/T= 2.0000
 ExpMin= 4.87D-02 ExpMax= 5.45D+05 ExpMxC= 1.72D+03 IAcc=3 IRadAn=         5 AccDes= 0.00D+00
 HarFok:  IExCor=  205 AccDes= 0.00D+00 IRadAn=         5 IDoV=-2 UseB2=F ITyADJ=14
 ICtDFT= 12500011 ScaDFX=  1.000000  1.000000  1.000000  1.000000
 Range of M.O.s used for correlation:     6    50
 NBasis=    50 NAE=     9 NBE=     9 NFC=     5 NFV=     0
 NROrb=     45 NOA=     4 NOB=     4 NVA=    41 NVB=    41
 Fully direct method using O(ONN) memory.
 JobTyp=1 Pass  1:  I=   6 to   9 NPSUse=  8 ParTrn=T ParDer=T DoDerP=T.
 Spin components of T(2) and E(2):
     alpha-alpha T2 =       0.8455470415D-02 E2=     -0.2637686087D-01
     alpha-beta  T2 =       0.4551898029D-01 E2=     -0.1581775121D+00
     beta-beta   T2 =       0.8455470415D-02 E2=     -0.2637686087D-01
 ANorm=    0.1030742413D+01
 E2 =    -0.2109312338D+00 EUMP2 =    -0.52702428324739D+03
          IDoAtm=01
          Differentiating once with respect to electric field.
                with respect to dipole field.
          Differentiating once with respect to nuclear coordinates.
 Keep R1 ints in memory in canonical form, NReq=4736237.
          There are     1 degrees of freedom in the 1st order CPHF.  IDoFFX=0 NUNeed=     1.
 LinEq1:  Iter=  0 NonCon=     1 RMS=1.12D-03 Max=1.06D-02 NDo=     1
 AX will form     1 AO Fock derivatives at one time.
 LinEq1:  Iter=  1 NonCon=     1 RMS=3.19D-04 Max=2.21D-03 NDo=     1
 LinEq1:  Iter=  2 NonCon=     1 RMS=2.90D-05 Max=1.96D-04 NDo=     1
 LinEq1:  Iter=  3 NonCon=     1 RMS=1.01D-06 Max=1.25D-05 NDo=     1
 LinEq1:  Iter=  4 NonCon=     1 RMS=7.56D-08 Max=6.92D-07 NDo=     1
 LinEq1:  Iter=  5 NonCon=     1 RMS=5.69D-09 Max=9.14D-08 NDo=     1
 LinEq1:  Iter=  6 NonCon=     1 RMS=2.08D-10 Max=2.67D-09 NDo=     1
 LinEq1:  Iter=  7 NonCon=     0 RMS=4.59D-12 Max=5.43D-11 NDo=     1
 Linear equations converged to 1.000D-10 1.000D-09 after     7 iterations.
 End of Minotr F.D. properties file   721 does not exist.
 End of Minotr F.D. properties file   722 does not exist.
 End of Minotr F.D. properties file   788 does not exist.

 **********************************************************************

            Population analysis using the SCF Density.

 **********************************************************************

 Alpha  occ. eigenvalues -- -118.61206 -12.32316  -9.57213  -9.57213  -9.57213
 Alpha  occ. eigenvalues --   -1.27789  -0.59137  -0.59137  -0.59137
 Alpha virt. eigenvalues --    0.12976   0.12976   0.12976   0.14535   0.40892
 Alpha virt. eigenvalues --    0.40892   0.40892   0.40892   0.40892   0.71022
 Alpha virt. eigenvalues --    0.71022   0.71022   1.06183   1.06183   1.06183
 Alpha virt. eigenvalues --    1.06183   1.06183   1.06544   1.48701   1.48701
 Alpha virt. eigenvalues --    1.48701   1.48701   1.48701   1.48701   1.48701
 Alpha virt. eigenvalues --    2.90934   2.90934   2.90934   2.90934   2.90934
 Alpha virt. eigenvalues --    3.03684   3.03684   3.03684   3.78243   3.78243
 Alpha virt. eigenvalues --    3.78243   3.78243   3.78243   3.78243   3.78243
 Alpha virt. eigenvalues --    6.01231
          Condensed to atoms (all electrons):
               2
     2  Ar  18.000000
 Mulliken charges:
               1
     1  Ar   0.000000
     2  Ar   0.000000
 Sum of Mulliken charges =   0.00000
 Mulliken charges with hydrogens summed into heavy atoms:
               1
     1  Ar   0.000000
     2  Ar   0.000000
         Mulliken charges condensed to fragments:
      1      0.000000
      2      0.000000
 Electronic spatial extent (au):  <R**2>=            283.1852
 Charge=             -0.0000 electrons
 Dipole moment (field-independent basis, Debye):
    X=             -0.0000    Y=             -0.0000    Z=             -0.0000  Tot=              0.0000
 Quadrupole moment (field-independent basis, Debye-Ang):
   XX=            -11.6877   YY=            -11.6877   ZZ=            -11.6877
   XY=              0.0000   XZ=             -0.0000   YZ=              0.0000
 Traceless Quadrupole moment (field-independent basis, Debye-Ang):
   XX=              0.0000   YY=              0.0000   ZZ=             -0.0000
   XY=              0.0000   XZ=             -0.0000   YZ=              0.0000
 Octapole moment (field-independent basis, Debye-Ang**2):
  XXX=             -0.0000  YYY=             -0.0000  ZZZ=            -70.1261  XYY=             -0.0000
  XXY=             -0.0000  XXZ=            -23.3754  XZZ=             -0.0000  YZZ=              0.0000
  YYZ=            -23.3754  XYZ=              0.0000
 Hexadecapole moment (field-independent basis, Debye-Ang**3):
 XXXX=            -10.9212 YYYY=            -10.9212 ZZZZ=           -291.4258 XXXY=              0.0000
 XXXZ=             -0.0000 YYYX=              0.0000 YYYZ=              0.0000 ZZZX=             -0.0000
 ZZZY=              0.0000 XXYY=             -3.6404 XXZZ=            -50.3912 YYZZ=            -50.3912
 XXYZ=             -0.0000 YYXZ=             -0.0000 ZZXY=              0.0000
 N-N= 0.000000000000D+00 E-N=-1.255014475666D+03  KE= 5.267950039559D+02
 Calling FoFJK, ICntrl=  10002127 FMM=F ISym2X=0 I1Cent= 0 IOpClX= 0 NMat=1 NMatS=1 NMatT=0.
 Cartesian Forces:  Max     0.000000000 RMS     0.000000000
 CPIOFr:  IOpCl= 0 IRwI=-1 IRwCP=  731 ICalc=  4 LCPTot=       15519 Len1MO=       42322 IndFrg=      227129
 CPIOFr:  IOpCl= 0 IRwI=-2 IRwCP=  731 ICalc=  0 LCPTot=       15519 Len1MO=       42322 IndFrg=       57841
 Counterpoise corrected energy =   -1053.877397067851
                   BSSE energy =       0.002217386667
              sum of fragments =   -1054.048566494781
           complexation energy =     106.02 kcal/mole (raw)
           complexation energy =     107.41 kcal/mole (corrected)
 -------------------------------------------------------------------
 Center     Atomic             Integrated Forces (Hartrees/Bohr)
 Number     Number              X              Y              Z
 -------------------------------------------------------------------
      1       18          -0.000000000   -0.000000000   -0.303955924
      2       18           0.000000000    0.000000000    0.303955924
 -------------------------------------------------------------------
 Integrated Cartesian Forces:  Max     0.303955924 RMS     0.175489035

 GradGradGradGradGradGradGradGradGradGradGradGradGradGradGradGradGradGrad
 Berny optimization.
 FormGI is forming the generalized inverse of G from B-inverse, IUseBI=4.
 Internal  Forces:  Max     0.303955924 RMS     0.303955924
 Search for a local minimum.
 Step number   1 out of a maximum of   20 on scan point     1 out of    81
 All quantities printed in internal units (Hartrees-Bohrs-Radians)
 Mixed Optimization -- En-DIIS/RFO-DIIS
 Second derivative matrix not updated -- first step.
 The second derivative matrix:
                          R1
           R1           0.34590
 ITU=  0
     Eigenvalues --- 1000.00000
 RFO step:  Lambda= 0.00000000D+00 EMin= 1.00000000D+03
 Linear search not attempted -- first point.
 Iteration  1 RMS(Cart)=  0.00000000 RMS(Int)=  0.00000000
 Iteration  1 RMS(Cart)=  0.00000000 RMS(Int)=  0.00000000
 Variable       Old X    -DE/DX   Delta X   Delta X   Delta X     New X
                                 (Linear)    (Quad)   (Total)
    R1        3.77945   0.30396   0.00000   0.00000   0.00000   3.77945
         Item               Value     Threshold  Converged?
 Maximum Force            0.000000     0.000450     YES
 RMS     Force            0.000000     0.000300     YES
 Maximum Displacement     0.000000     0.001800     YES
 RMS     Displacement     0.000000     0.001200     YES
 Predicted change in Energy=-0.000000D+00
 Optimization completed.
    -- Stationary point found.
                           ----------------------------
                           !   Optimized Parameters   !
                           ! (Angstroms and Degrees)  !
 --------------------------                            --------------------------
 ! Name  Definition              Value          Derivative Info.                !
 --------------------------------------------------------------------------------
 ! R1    R(1,2)                  2.0            -DE/DX =    0.304               !
 --------------------------------------------------------------------------------
 Iteration  1 RMS(Cart)=  0.13362382 RMS(Int)=  0.00000000
 Iteration  2 RMS(Cart)=  0.00000000 RMS(Int)=  0.00000000
 Iteration  1 RMS(Cart)=  0.00000000 RMS(Int)=  0.00000000
 GradGradGradGradGradGradGradGradGradGradGradGradGradGradGradGradGradGrad

                          Input orientation:                          
 ---------------------------------------------------------------------
 Center     Atomic      Atomic             Coordinates (Angstroms)
 Number     Number       Type             X           Y           Z
 ---------------------------------------------------------------------
      1         18           0       -0.000000    0.000000   -0.050000
      2         18           0        0.000000    0.000000    2.050000
 ---------------------------------------------------------------------
 Symmetry turned off by external request.
 Stoichiometry    Ar2
 Framework group  D*H[C*(Ar.Ar)]
 Deg. of freedom     1
 Full point group                 D*H     NOp   8
 Rotational constants (GHZ):           0.0000000           5.7353144           5.7353144
 Mismatch for IA=      1 IOp=  3 Frag=      1 JA=      2 Frag=      2
 Mismatch for IA=      2 IOp=  3 Frag=      2 JA=      1 Frag=      1
 Symmetry turned off in CkCPSy: fragments do not conform to real system point group.
 Returning to input orientation because symmetry turned off.
 CPIOFr:  IOpCl= 0 IRwI=-2 IRwCP=20731 ICalc=  0 LCPTot=       15519 Len1MO=       42322 IndFrg=       57841
 CPIOFr:  IOpCl= 0 IRwI= 4 IRwCP=20731 ICalc=  0 LCPTot=       15519 Len1MO=       42322 IndFrg=       57841
 Counterpoise: doing full-system calculation.
 Basis read from rwf:  (5D, 7F)
   100 basis functions,   226 primitive gaussians,   118 cartesian basis functions
    18 alpha electrons       18 beta electrons
       nuclear repulsion energy        81.6444839705 Hartrees.
 NAtoms=    2 NActive=    2 NUniq=    2 SFac= 1.00D+00 NAtFMM=   60 NAOKFM=F Big=F
 Integral buffers will be    131072 words long.
 Raffenetti 1 integral format.
 Two-electron integral symmetry is turned off.
 One-electron integrals computed using PRISM.
 NBasis=   100 RedAO= T EigKep=  1.11D-03  NBF=   100
 NBsUse=   100 1.00D-06 EigRej= -1.00D+00 NBFU=   100
 Initial guess from the checkpoint file:  "ar-dimer.chk"
 B after Tr=     0.000000    0.000000    0.000000
         Rot=    1.000000    0.000000    0.000000    0.000000 Ang=   0.00 deg.
 ExpMin= 4.87D-02 ExpMax= 5.45D+05 ExpMxC= 1.72D+03 IAcc=3 IRadAn=         5 AccDes= 0.00D+00
 Harris functional with IExCor=  205 and IRadAn=       5 diagonalized for initial guess.
 HarFok:  IExCor=  205 AccDes= 0.00D+00 IRadAn=         5 IDoV= 1 UseB2=F ITyADJ=14
 ICtDFT=  3500011 ScaDFX=  1.000000  1.000000  1.000000  1.000000
 FoFCou: FMM=F IPFlag=           0 FMFlag=      100000 FMFlg1=           0
         NFxFlg=           0 DoJE=T BraDBF=F KetDBF=T FulRan=T
         wScrn=  0.000000 ICntrl=       500 IOpCl=  0 I1Cent=   200000004 NGrid=           0
         NMat0=    1 NMatS0=      1 NMatT0=    0 NMatD0=    1 NMtDS0=    0 NMtDT0=    0
 Symmetry not used in FoFCou.
 Keep R1 ints in memory in canonical form, NReq=16731344.
 Requested convergence on RMS density matrix=1.00D-08 within 128 cycles.
 Requested convergence on MAX density matrix=1.00D-06.
 Requested convergence on             energy=1.00D-06.
 No special actions if energy rises.
 SCF Done:  E(RHF) =  -1053.48740733     A.U. after    8 cycles
            NFock=  8  Conv=0.49D-08     -V/T= 1.9991
 ExpMin= 4.87D-02 ExpMax= 5.45D+05 ExpMxC= 1.72D+03 IAcc=3 IRadAn=         5 AccDes= 0.00D+00
 HarFok:  IExCor=  205 AccDes= 0.00D+00 IRadAn=         5 IDoV=-2 UseB2=F ITyADJ=14
 ICtDFT= 12500011 ScaDFX=  1.000000  1.000000  1.000000  1.000000
 Range of M.O.s used for correlation:    11   100
 NBasis=   100 NAE=    18 NBE=    18 NFC=    10 NFV=     0
 NROrb=     90 NOA=     8 NOB=     8 NVA=    82 NVB=    82
 Fully direct method using O(ONN) memory.
 JobTyp=1 Pass  1:  I=  11 to  18 NPSUse=  8 ParTrn=T ParDer=T DoDerP=T.
 Spin components of T(2) and E(2):
     alpha-alpha T2 =       0.1831225262D-01 E2=     -0.5715672936D-01
     alpha-beta  T2 =       0.9373601989D-01 E2=     -0.3267534777D+00
     beta-beta   T2 =       0.1831225262D-01 E2=     -0.5715672936D-01
 ANorm=    0.1063184145D+01
 E2 =    -0.4410669364D+00 EUMP2 =    -0.10539284742636D+04
          IDoAtm=11
          Differentiating once with respect to electric field.
                with respect to dipole field.
          Differentiating once with respect to nuclear coordinates.
 Keep R1 ints in memory in canonical form, NReq=16732336.
          There are     1 degrees of freedom in the 1st order CPHF.  IDoFFX=0 NUNeed=     1.
 LinEq1:  Iter=  0 NonCon=     1 RMS=1.33D-03 Max=1.80D-02 NDo=     1
 AX will form     1 AO Fock derivatives at one time.
 LinEq1:  Iter=  1 NonCon=     1 RMS=1.76D-04 Max=2.48D-03 NDo=     1
 LinEq1:  Iter=  2 NonCon=     1 RMS=5.01D-05 Max=7.55D-04 NDo=     1
 LinEq1:  Iter=  3 NonCon=     1 RMS=9.34D-06 Max=1.42D-04 NDo=     1
 LinEq1:  Iter=  4 NonCon=     1 RMS=2.49D-06 Max=3.19D-05 NDo=     1
 LinEq1:  Iter=  5 NonCon=     1 RMS=2.13D-07 Max=4.15D-06 NDo=     1
 LinEq1:  Iter=  6 NonCon=     1 RMS=2.08D-08 Max=2.61D-07 NDo=     1
 LinEq1:  Iter=  7 NonCon=     1 RMS=2.07D-09 Max=2.65D-08 NDo=     1
 LinEq1:  Iter=  8 NonCon=     1 RMS=2.13D-10 Max=2.51D-09 NDo=     1
 LinEq1:  Iter=  9 NonCon=     0 RMS=1.86D-11 Max=1.71D-10 NDo=     1
 Linear equations converged to 1.000D-10 1.000D-09 after     9 iterations.
 End of Minotr F.D. properties file   721 does not exist.
 End of Minotr F.D. properties file   722 does not exist.
 End of Minotr F.D. properties file   788 does not exist.
 Calling FoFJK, ICntrl=  10002127 FMM=F ISym2X=0 I1Cent= 0 IOpClX= 0 NMat=1 NMatS=1 NMatT=0.
 Cartesian Forces:  Max     0.219517347 RMS     0.126738400
 CPIOFr:  IOpCl= 0 IRwI=-1 IRwCP=  731 ICalc= -1 LCPTot=       15519 Len1MO=       42322 IndFrg=       15519
 CPIOFr:  IOpCl= 0 IRwI=-1 IRwCP=  731 ICalc=  0 LCPTot=       15519 Len1MO=       42322 IndFrg=       57841
 CPIOFr:  IOpCl= 0 IRwI=-2 IRwCP=20731 ICalc=  1 LCPTot=       15519 Len1MO=       42322 IndFrg=      100163
 CPIOFr:  IOpCl= 0 IRwI= 4 IRwCP=20731 ICalc=  1 LCPTot=       15519 Len1MO=       42322 IndFrg=      100163
 Counterpoise: doing calculation for fragment   1 using the basis set of the full-system, NewBq=T
 Basis read from rwf:  (5D, 7F)
   100 basis functions,   226 primitive gaussians,   118 cartesian basis functions
     9 alpha electrons        9 beta electrons
       nuclear repulsion energy         0.0000000000 Hartrees.
 NAtoms=    2 NActive=    2 NUniq=    2 SFac= 1.00D+00 NAtFMM=   60 NAOKFM=F Big=F
 Integral buffers will be    131072 words long.
 Raffenetti 1 integral format.
 Two-electron integral symmetry is turned off.
 One-electron integrals computed using PRISM.
 NBasis=   100 RedAO= T EigKep=  1.11D-03  NBF=   100
 NBsUse=   100 1.00D-06 EigRej= -1.00D+00 NBFU=   100
 Initial guess from the checkpoint file:  "ar-dimer.chk"
 B after Tr=     0.000000    0.000000    0.000000
         Rot=    1.000000    0.000000    0.000000    0.000000 Ang=   0.00 deg.
 ExpMin= 4.87D-02 ExpMax= 5.45D+05 ExpMxC= 1.72D+03 IAcc=3 IRadAn=         5 AccDes= 0.00D+00
 Harris functional with IExCor=  205 and IRadAn=       5 diagonalized for initial guess.
 HarFok:  IExCor=  205 AccDes= 0.00D+00 IRadAn=         5 IDoV= 1 UseB2=F ITyADJ=14
 ICtDFT=  3500011 ScaDFX=  1.000000  1.000000  1.000000  1.000000
 FoFCou: FMM=F IPFlag=           0 FMFlag=      100000 FMFlg1=           0
         NFxFlg=           0 DoJE=T BraDBF=F KetDBF=T FulRan=T
         wScrn=  0.000000 ICntrl=       500 IOpCl=  0 I1Cent=   200000004 NGrid=           0
         NMat0=    1 NMatS0=      1 NMatT0=    0 NMatD0=    1 NMtDS0=    0 NMtDT0=    0
 Symmetry not used in FoFCou.
 Keep R1 ints in memory in canonical form, NReq=16731344.
 Requested convergence on RMS density matrix=1.00D-08 within 128 cycles.
 Requested convergence on MAX density matrix=1.00D-06.
 Requested convergence on             energy=1.00D-06.
 No special actions if energy rises.
 SCF Done:  E(RHF) =  -526.813422534     A.U. after    7 cycles
            NFock=  7  Conv=0.12D-08     -V/T= 2.0000
 ExpMin= 4.87D-02 ExpMax= 5.45D+05 ExpMxC= 1.72D+03 IAcc=3 IRadAn=         5 AccDes= 0.00D+00
 HarFok:  IExCor=  205 AccDes= 0.00D+00 IRadAn=         5 IDoV=-2 UseB2=F ITyADJ=14
 ICtDFT= 12500011 ScaDFX=  1.000000  1.000000  1.000000  1.000000
 Range of M.O.s used for correlation:     6   100
 NBasis=   100 NAE=     9 NBE=     9 NFC=     5 NFV=     0
 NROrb=     95 NOA=     4 NOB=     4 NVA=    91 NVB=    91
 Fully direct method using O(ONN) memory.
 JobTyp=1 Pass  1:  I=   6 to   9 NPSUse=  8 ParTrn=T ParDer=T DoDerP=T.
 Spin components of T(2) and E(2):
     alpha-alpha T2 =       0.8459023884D-02 E2=     -0.2640584493D-01
     alpha-beta  T2 =       0.4563224785D-01 E2=     -0.1589500529D+00
     beta-beta   T2 =       0.8459023884D-02 E2=     -0.2640584493D-01
 ANorm=    0.1030800803D+01
 E2 =    -0.2117617427D+00 EUMP2 =    -0.52702518427633D+03
          IDoAtm=11
          Differentiating once with respect to electric field.
                with respect to dipole field.
          Differentiating once with respect to nuclear coordinates.
 Keep R1 ints in memory in canonical form, NReq=16732341.
          There are     1 degrees of freedom in the 1st order CPHF.  IDoFFX=0 NUNeed=     1.
 LinEq1:  Iter=  0 NonCon=     1 RMS=7.56D-04 Max=6.71D-03 NDo=     1
 AX will form     1 AO Fock derivatives at one time.
 LinEq1:  Iter=  1 NonCon=     1 RMS=2.10D-04 Max=1.63D-03 NDo=     1
 LinEq1:  Iter=  2 NonCon=     1 RMS=1.90D-05 Max=1.50D-04 NDo=     1
 LinEq1:  Iter=  3 NonCon=     1 RMS=8.65D-07 Max=8.91D-06 NDo=     1
 LinEq1:  Iter=  4 NonCon=     1 RMS=1.31D-07 Max=1.16D-06 NDo=     1
 LinEq1:  Iter=  5 NonCon=     1 RMS=2.05D-08 Max=2.33D-07 NDo=     1
 LinEq1:  Iter=  6 NonCon=     1 RMS=3.91D-09 Max=3.25D-08 NDo=     1
 LinEq1:  Iter=  7 NonCon=     1 RMS=7.59D-10 Max=8.88D-09 NDo=     1
 LinEq1:  Iter=  8 NonCon=     0 RMS=8.16D-11 Max=7.98D-10 NDo=     1
 Linear equations converged to 1.000D-10 1.000D-09 after     8 iterations.
 End of Minotr F.D. properties file   721 does not exist.
 End of Minotr F.D. properties file   722 does not exist.
 End of Minotr F.D. properties file   788 does not exist.
 Calling FoFJK, ICntrl=  10002127 FMM=F ISym2X=0 I1Cent= 0 IOpClX= 0 NMat=1 NMatS=1 NMatT=0.
 Cartesian Forces:  Max     0.000987400 RMS     0.000570076
 CPIOFr:  IOpCl= 0 IRwI=-1 IRwCP=  731 ICalc=  1 LCPTot=       15519 Len1MO=       42322 IndFrg=      100163
 CPIOFr:  IOpCl= 0 IRwI=-2 IRwCP=20731 ICalc=  2 LCPTot=       15519 Len1MO=       42322 IndFrg=      142485
 CPIOFr:  IOpCl= 0 IRwI= 4 IRwCP=20731 ICalc=  2 LCPTot=       15519 Len1MO=       42322 IndFrg=      142485
 Counterpoise: doing calculation for fragment   2 using the basis set of the full-system, NewBq=T
 Basis read from rwf:  (5D, 7F)
   100 basis functions,   226 primitive gaussians,   118 cartesian basis functions
     9 alpha electrons        9 beta electrons
       nuclear repulsion energy         0.0000000000 Hartrees.
 NAtoms=    2 NActive=    2 NUniq=    2 SFac= 1.00D+00 NAtFMM=   60 NAOKFM=F Big=F
 Integral buffers will be    131072 words long.
 Raffenetti 1 integral format.
 Two-electron integral symmetry is turned off.
 One-electron integrals computed using PRISM.
 NBasis=   100 RedAO= T EigKep=  1.11D-03  NBF=   100
 NBsUse=   100 1.00D-06 EigRej= -1.00D+00 NBFU=   100
 Initial guess from the checkpoint file:  "ar-dimer.chk"
 B after Tr=     0.000000    0.000000    0.000000
         Rot=    1.000000    0.000000    0.000000    0.000000 Ang=   0.00 deg.
 ExpMin= 4.87D-02 ExpMax= 5.45D+05 ExpMxC= 1.72D+03 IAcc=3 IRadAn=         5 AccDes= 0.00D+00
 Harris functional with IExCor=  205 and IRadAn=       5 diagonalized for initial guess.
 HarFok:  IExCor=  205 AccDes= 0.00D+00 IRadAn=         5 IDoV= 1 UseB2=F ITyADJ=14
 ICtDFT=  3500011 ScaDFX=  1.000000  1.000000  1.000000  1.000000
 FoFCou: FMM=F IPFlag=           0 FMFlag=      100000 FMFlg1=           0
         NFxFlg=           0 DoJE=T BraDBF=F KetDBF=T FulRan=T
         wScrn=  0.000000 ICntrl=       500 IOpCl=  0 I1Cent=   200000004 NGrid=           0
         NMat0=    1 NMatS0=      1 NMatT0=    0 NMatD0=    1 NMtDS0=    0 NMtDT0=    0
 Symmetry not used in FoFCou.
 Keep R1 ints in memory in canonical form, NReq=16731344.
 Requested convergence on RMS density matrix=1.00D-08 within 128 cycles.
 Requested convergence on MAX density matrix=1.00D-06.
 Requested convergence on             energy=1.00D-06.
 No special actions if energy rises.
 SCF Done:  E(RHF) =  -526.813422534     A.U. after    8 cycles
            NFock=  8  Conv=0.46D-08     -V/T= 2.0000
 ExpMin= 4.87D-02 ExpMax= 5.45D+05 ExpMxC= 1.72D+03 IAcc=3 IRadAn=         5 AccDes= 0.00D+00
 HarFok:  IExCor=  205 AccDes= 0.00D+00 IRadAn=         5 IDoV=-2 UseB2=F ITyADJ=14
 ICtDFT= 12500011 ScaDFX=  1.000000  1.000000  1.000000  1.000000
 Range of M.O.s used for correlation:     6   100
 NBasis=   100 NAE=     9 NBE=     9 NFC=     5 NFV=     0
 NROrb=     95 NOA=     4 NOB=     4 NVA=    91 NVB=    91
 Fully direct method using O(ONN) memory.
 JobTyp=1 Pass  1:  I=   6 to   9 NPSUse=  8 ParTrn=T ParDer=T DoDerP=T.
 Spin components of T(2) and E(2):
     alpha-alpha T2 =       0.8459023907D-02 E2=     -0.2640584499D-01
     alpha-beta  T2 =       0.4563224794D-01 E2=     -0.1589500531D+00
     beta-beta   T2 =       0.8459023907D-02 E2=     -0.2640584499D-01
 ANorm=    0.1030800803D+01
 E2 =    -0.2117617431D+00 EUMP2 =    -0.52702518427667D+03
          IDoAtm=11
          Differentiating once with respect to electric field.
                with respect to dipole field.
          Differentiating once with respect to nuclear coordinates.
 Keep R1 ints in memory in canonical form, NReq=16732341.
          There are     1 degrees of freedom in the 1st order CPHF.  IDoFFX=0 NUNeed=     1.
 LinEq1:  Iter=  0 NonCon=     1 RMS=7.56D-04 Max=6.71D-03 NDo=     1
 AX will form     1 AO Fock derivatives at one time.
 LinEq1:  Iter=  1 NonCon=     1 RMS=2.10D-04 Max=1.60D-03 NDo=     1
 LinEq1:  Iter=  2 NonCon=     1 RMS=1.90D-05 Max=1.42D-04 NDo=     1
 LinEq1:  Iter=  3 NonCon=     1 RMS=8.65D-07 Max=8.91D-06 NDo=     1
 LinEq1:  Iter=  4 NonCon=     1 RMS=1.31D-07 Max=1.16D-06 NDo=     1
 LinEq1:  Iter=  5 NonCon=     1 RMS=2.05D-08 Max=2.33D-07 NDo=     1
 LinEq1:  Iter=  6 NonCon=     1 RMS=3.91D-09 Max=3.25D-08 NDo=     1
 LinEq1:  Iter=  7 NonCon=     1 RMS=7.59D-10 Max=8.88D-09 NDo=     1
 LinEq1:  Iter=  8 NonCon=     0 RMS=8.16D-11 Max=7.98D-10 NDo=     1
 Linear equations converged to 1.000D-10 1.000D-09 after     8 iterations.
 End of Minotr F.D. properties file   721 does not exist.
 End of Minotr F.D. properties file   722 does not exist.
 End of Minotr F.D. properties file   788 does not exist.
 Calling FoFJK, ICntrl=  10002127 FMM=F ISym2X=0 I1Cent= 0 IOpClX= 0 NMat=1 NMatS=1 NMatT=0.
 Cartesian Forces:  Max     0.000987401 RMS     0.000570076
 CPIOFr:  IOpCl= 0 IRwI=-1 IRwCP=  731 ICalc=  2 LCPTot=       15519 Len1MO=       42322 IndFrg=      142485
 CPIOFr:  IOpCl= 0 IRwI=-2 IRwCP=20731 ICalc=  3 LCPTot=       15519 Len1MO=       42322 IndFrg=      184807
 CPIOFr:  IOpCl= 0 IRwI= 4 IRwCP=20731 ICalc=  3 LCPTot=       15519 Len1MO=       42322 IndFrg=      184807
 Counterpoise: doing calculation for fragment   1 using the basis set of the fragment.
 Basis read from rwf:  (5D, 7F)
    50 basis functions,   113 primitive gaussians,    59 cartesian basis functions
     9 alpha electrons        9 beta electrons
       nuclear repulsion energy         0.0000000000 Hartrees.
 NAtoms=    2 NActive=    1 NUniq=    1 SFac= 1.00D+00 NAtFMM=   60 NAOKFM=F Big=F
 Integral buffers will be    131072 words long.
 Raffenetti 1 integral format.
 Two-electron integral symmetry is turned off.
 One-electron integrals computed using PRISM.
 NBasis=    50 RedAO= T EigKep=  1.65D-02  NBF=    50
 NBsUse=    50 1.00D-06 EigRej= -1.00D+00 NBFU=    50
 Initial guess from the checkpoint file:  "ar-dimer.chk"
 B after Tr=    -0.000000    0.000000   -0.047243
         Rot=    1.000000    0.000000    0.000000    0.000000 Ang=   0.00 deg.
 ExpMin= 4.87D-02 ExpMax= 5.45D+05 ExpMxC= 1.72D+03 IAcc=3 IRadAn=         5 AccDes= 0.00D+00
 Harris functional with IExCor=  205 and IRadAn=       5 diagonalized for initial guess.
 HarFok:  IExCor=  205 AccDes= 0.00D+00 IRadAn=         5 IDoV= 1 UseB2=F ITyADJ=14
 ICtDFT=  3500011 ScaDFX=  1.000000  1.000000  1.000000  1.000000
 FoFCou: FMM=F IPFlag=           0 FMFlag=      100000 FMFlg1=           0
         NFxFlg=           0 DoJE=T BraDBF=F KetDBF=T FulRan=T
         wScrn=  0.000000 ICntrl=       500 IOpCl=  0 I1Cent=   200000004 NGrid=           0
         NMat0=    1 NMatS0=      1 NMatT0=    0 NMatD0=    1 NMtDS0=    0 NMtDT0=    0
 Symmetry not used in FoFCou.
 Keep R1 ints in memory in canonical form, NReq=4735720.
 Requested convergence on RMS density matrix=1.00D-08 within 128 cycles.
 Requested convergence on MAX density matrix=1.00D-06.
 Requested convergence on             energy=1.00D-06.
 No special actions if energy rises.
 SCF Done:  E(RHF) =  -526.813352014     A.U. after    1 cycles
            NFock=  1  Conv=0.17D-09     -V/T= 2.0000
 ExpMin= 4.87D-02 ExpMax= 5.45D+05 ExpMxC= 1.72D+03 IAcc=3 IRadAn=         5 AccDes= 0.00D+00
 HarFok:  IExCor=  205 AccDes= 0.00D+00 IRadAn=         5 IDoV=-2 UseB2=F ITyADJ=14
 ICtDFT= 12500011 ScaDFX=  1.000000  1.000000  1.000000  1.000000
 Range of M.O.s used for correlation:     6    50
 NBasis=    50 NAE=     9 NBE=     9 NFC=     5 NFV=     0
 NROrb=     45 NOA=     4 NOB=     4 NVA=    41 NVB=    41
 Fully direct method using O(ONN) memory.
 JobTyp=1 Pass  1:  I=   6 to   9 NPSUse=  8 ParTrn=T ParDer=T DoDerP=T.
 Spin components of T(2) and E(2):
     alpha-alpha T2 =       0.8455470400D-02 E2=     -0.2637686082D-01
     alpha-beta  T2 =       0.4551898025D-01 E2=     -0.1581775119D+00
     beta-beta   T2 =       0.8455470400D-02 E2=     -0.2637686082D-01
 ANorm=    0.1030742413D+01
 E2 =    -0.2109312336D+00 EUMP2 =    -0.52702428324714D+03
          IDoAtm=10
          Differentiating once with respect to electric field.
                with respect to dipole field.
          Differentiating once with respect to nuclear coordinates.
 Keep R1 ints in memory in canonical form, NReq=4736237.
          There are     1 degrees of freedom in the 1st order CPHF.  IDoFFX=0 NUNeed=     1.
 LinEq1:  Iter=  0 NonCon=     1 RMS=1.12D-03 Max=1.06D-02 NDo=     1
 AX will form     1 AO Fock derivatives at one time.
 LinEq1:  Iter=  1 NonCon=     1 RMS=3.19D-04 Max=2.25D-03 NDo=     1
 LinEq1:  Iter=  2 NonCon=     1 RMS=2.90D-05 Max=2.09D-04 NDo=     1
 LinEq1:  Iter=  3 NonCon=     1 RMS=1.01D-06 Max=1.25D-05 NDo=     1
 LinEq1:  Iter=  4 NonCon=     1 RMS=7.56D-08 Max=6.92D-07 NDo=     1
 LinEq1:  Iter=  5 NonCon=     1 RMS=5.69D-09 Max=9.14D-08 NDo=     1
 LinEq1:  Iter=  6 NonCon=     1 RMS=2.08D-10 Max=2.67D-09 NDo=     1
 LinEq1:  Iter=  7 NonCon=     0 RMS=4.59D-12 Max=5.43D-11 NDo=     1
 Linear equations converged to 1.000D-10 1.000D-09 after     7 iterations.
 End of Minotr F.D. properties file   721 does not exist.
 End of Minotr F.D. properties file   722 does not exist.
 End of Minotr F.D. properties file   788 does not exist.
 Calling FoFJK, ICntrl=  10002127 FMM=F ISym2X=0 I1Cent= 0 IOpClX= 0 NMat=1 NMatS=1 NMatT=0.
 Cartesian Forces:  Max     0.000000000 RMS     0.000000000
 CPIOFr:  IOpCl= 0 IRwI=-1 IRwCP=  731 ICalc=  3 LCPTot=       15519 Len1MO=       42322 IndFrg=      184807
 CPIOFr:  IOpCl= 0 IRwI=-2 IRwCP=20731 ICalc=  4 LCPTot=       15519 Len1MO=       42322 IndFrg=      227129
 CPIOFr:  IOpCl= 0 IRwI= 4 IRwCP=20731 ICalc=  4 LCPTot=       15519 Len1MO=       42322 IndFrg=      227129
 Counterpoise: doing calculation for fragment   2 using the basis set of the fragment.
 Basis read from rwf:  (5D, 7F)
    50 basis functions,   113 primitive gaussians,    59 cartesian basis functions
     9 alpha electrons        9 beta electrons
       nuclear repulsion energy         0.0000000000 Hartrees.
 NAtoms=    2 NActive=    1 NUniq=    1 SFac= 1.00D+00 NAtFMM=   60 NAOKFM=F Big=F
 Integral buffers will be    131072 words long.
 Raffenetti 1 integral format.
 Two-electron integral symmetry is turned off.
 One-electron integrals computed using PRISM.
 NBasis=    50 RedAO= T EigKep=  1.65D-02  NBF=    50
 NBsUse=    50 1.00D-06 EigRej= -1.00D+00 NBFU=    50
 Initial guess from the checkpoint file:  "ar-dimer.chk"
 B after Tr=     0.000000    0.000000    0.047243
         Rot=    1.000000    0.000000    0.000000    0.000000 Ang=   0.00 deg.
 ExpMin= 4.87D-02 ExpMax= 5.45D+05 ExpMxC= 1.72D+03 IAcc=3 IRadAn=         5 AccDes= 0.00D+00
 Harris functional with IExCor=  205 and IRadAn=       5 diagonalized for initial guess.
 HarFok:  IExCor=  205 AccDes= 0.00D+00 IRadAn=         5 IDoV= 1 UseB2=F ITyADJ=14
 ICtDFT=  3500011 ScaDFX=  1.000000  1.000000  1.000000  1.000000
 FoFCou: FMM=F IPFlag=           0 FMFlag=      100000 FMFlg1=           0
         NFxFlg=           0 DoJE=T BraDBF=F KetDBF=T FulRan=T
         wScrn=  0.000000 ICntrl=       500 IOpCl=  0 I1Cent=   200000004 NGrid=           0
         NMat0=    1 NMatS0=      1 NMatT0=    0 NMatD0=    1 NMtDS0=    0 NMtDT0=    0
 Symmetry not used in FoFCou.
 Keep R1 ints in memory in canonical form, NReq=4735720.
 Requested convergence on RMS density matrix=1.00D-08 within 128 cycles.
 Requested convergence on MAX density matrix=1.00D-06.
 Requested convergence on             energy=1.00D-06.
 No special actions if energy rises.
 SCF Done:  E(RHF) =  -526.813352014     A.U. after    1 cycles
            NFock=  1  Conv=0.17D-09     -V/T= 2.0000
 ExpMin= 4.87D-02 ExpMax= 5.45D+05 ExpMxC= 1.72D+03 IAcc=3 IRadAn=         5 AccDes= 0.00D+00
 HarFok:  IExCor=  205 AccDes= 0.00D+00 IRadAn=         5 IDoV=-2 UseB2=F ITyADJ=14
 ICtDFT= 12500011 ScaDFX=  1.000000  1.000000  1.000000  1.000000
 Range of M.O.s used for correlation:     6    50
 NBasis=    50 NAE=     9 NBE=     9 NFC=     5 NFV=     0
 NROrb=     45 NOA=     4 NOB=     4 NVA=    41 NVB=    41
 Fully direct method using O(ONN) memory.
 JobTyp=1 Pass  1:  I=   6 to   9 NPSUse=  8 ParTrn=T ParDer=T DoDerP=T.
 Spin components of T(2) and E(2):
     alpha-alpha T2 =       0.8455470400D-02 E2=     -0.2637686082D-01
     alpha-beta  T2 =       0.4551898025D-01 E2=     -0.1581775119D+00
     beta-beta   T2 =       0.8455470400D-02 E2=     -0.2637686082D-01
 ANorm=    0.1030742413D+01
 E2 =    -0.2109312336D+00 EUMP2 =    -0.52702428324714D+03
          IDoAtm=01
          Differentiating once with respect to electric field.
                with respect to dipole field.
          Differentiating once with respect to nuclear coordinates.
 Keep R1 ints in memory in canonical form, NReq=4736237.
          There are     1 degrees of freedom in the 1st order CPHF.  IDoFFX=0 NUNeed=     1.
 LinEq1:  Iter=  0 NonCon=     1 RMS=1.12D-03 Max=1.06D-02 NDo=     1
 AX will form     1 AO Fock derivatives at one time.
 LinEq1:  Iter=  1 NonCon=     1 RMS=3.19D-04 Max=2.24D-03 NDo=     1
 LinEq1:  Iter=  2 NonCon=     1 RMS=2.90D-05 Max=2.09D-04 NDo=     1
 LinEq1:  Iter=  3 NonCon=     1 RMS=1.01D-06 Max=1.25D-05 NDo=     1
 LinEq1:  Iter=  4 NonCon=     1 RMS=7.56D-08 Max=6.92D-07 NDo=     1
 LinEq1:  Iter=  5 NonCon=     1 RMS=5.69D-09 Max=9.14D-08 NDo=     1
 LinEq1:  Iter=  6 NonCon=     1 RMS=2.08D-10 Max=2.67D-09 NDo=     1
 LinEq1:  Iter=  7 NonCon=     0 RMS=4.59D-12 Max=5.43D-11 NDo=     1
 Linear equations converged to 1.000D-10 1.000D-09 after     7 iterations.
 End of Minotr F.D. properties file   721 does not exist.
 End of Minotr F.D. properties file   722 does not exist.
 End of Minotr F.D. properties file   788 does not exist.
 Calling FoFJK, ICntrl=  10002127 FMM=F ISym2X=0 I1Cent= 0 IOpClX= 0 NMat=1 NMatS=1 NMatT=0.
 Cartesian Forces:  Max     0.000000000 RMS     0.000000000
 CPIOFr:  IOpCl= 0 IRwI=-1 IRwCP=  731 ICalc=  4 LCPTot=       15519 Len1MO=       42322 IndFrg=      227129
 CPIOFr:  IOpCl= 0 IRwI=-2 IRwCP=  731 ICalc=  0 LCPTot=       15519 Len1MO=       42322 IndFrg=       57841
 Counterpoise corrected energy =   -1053.926672204920
                   BSSE energy =       0.001802058721
              sum of fragments =   -1054.048566494274
           complexation energy =      75.36 kcal/mole (raw)
           complexation energy =      76.49 kcal/mole (corrected)
 -------------------------------------------------------------------
 Center     Atomic             Integrated Forces (Hartrees/Bohr)
 Number     Number              X              Y              Z
 -------------------------------------------------------------------
      1       18           0.000000000   -0.000000000   -0.221492148
      2       18          -0.000000000    0.000000000    0.221492148
 -------------------------------------------------------------------
 Integrated Cartesian Forces:  Max     0.221492148 RMS     0.127878551

 GradGradGradGradGradGradGradGradGradGradGradGradGradGradGradGradGradGrad
 Berny optimization.
 Internal  Forces:  Max     0.221492148 RMS     0.221492148
 Search for a local minimum.
 Step number   1 out of a maximum of   20 on scan point     2 out of    81
 All quantities printed in internal units (Hartrees-Bohrs-Radians)
 Mixed Optimization -- RFO/linear search
 Second derivative matrix not updated -- first step.
 The second derivative matrix:
                          R1
           R1           0.34590
 ITU=  0
     Eigenvalues --- 1000.00000
 RFO step:  Lambda= 0.00000000D+00 EMin= 1.00000000D+03
 Linear search not attempted -- first point.
 Iteration  1 RMS(Cart)=  0.00000000 RMS(Int)=  0.00000000
 Iteration  1 RMS(Cart)=  0.00000000 RMS(Int)=  0.00000000
 Variable       Old X    -DE/DX   Delta X   Delta X   Delta X     New X
                                 (Linear)    (Quad)   (Total)
    R1        3.96842   0.22149   0.00000   0.00000   0.00000   3.96842
         Item               Value     Threshold  Converged?
 Maximum Force            0.000000     0.000450     YES
 RMS     Force            0.000000     0.000300     YES
 Maximum Displacement     0.000000     0.001800     YES
 RMS     Displacement     0.000000     0.001200     YES
 Predicted change in Energy=-0.000000D+00
 Optimization completed.
    -- Stationary point found.
                           ----------------------------
                           !   Optimized Parameters   !
                           ! (Angstroms and Degrees)  !
 --------------------------                            --------------------------
 ! Name  Definition              Value          Derivative Info.                !
 --------------------------------------------------------------------------------
 ! R1    R(1,2)                  2.1            -DE/DX =    0.2215              !
 --------------------------------------------------------------------------------
 Iteration  1 RMS(Cart)=  0.13362382 RMS(Int)=  0.00000000
 Iteration  2 RMS(Cart)=  0.00000000 RMS(Int)=  0.00000000
 Iteration  1 RMS(Cart)=  0.00000000 RMS(Int)=  0.00000000
 GradGradGradGradGradGradGradGradGradGradGradGradGradGradGradGradGradGrad

                          Input orientation:                          
 ---------------------------------------------------------------------
 Center     Atomic      Atomic             Coordinates (Angstroms)
 Number     Number       Type             X           Y           Z
 ---------------------------------------------------------------------
      1         18           0       -0.000000    0.000000   -0.100000
      2         18           0        0.000000    0.000000    2.100000
 ---------------------------------------------------------------------
 Symmetry turned off by external request.
 Stoichiometry    Ar2
 Framework group  D*H[C*(Ar.Ar)]
 Deg. of freedom     1
 Full point group                 D*H     NOp   8
 Rotational constants (GHZ):           0.0000000           5.2257720           5.2257720
 Mismatch for IA=      1 IOp=  3 Frag=      1 JA=      2 Frag=      2
 Mismatch for IA=      2 IOp=  3 Frag=      2 JA=      1 Frag=      1
 Symmetry turned off in CkCPSy: fragments do not conform to real system point group.
 Returning to input orientation because symmetry turned off.
 CPIOFr:  IOpCl= 0 IRwI=-2 IRwCP=20731 ICalc=  0 LCPTot=       15519 Len1MO=       42322 IndFrg=       57841
 CPIOFr:  IOpCl= 0 IRwI= 4 IRwCP=20731 ICalc=  0 LCPTot=       15519 Len1MO=       42322 IndFrg=       57841
 Counterpoise: doing full-system calculation.
 Basis read from rwf:  (5D, 7F)
   100 basis functions,   226 primitive gaussians,   118 cartesian basis functions
    18 alpha electrons       18 beta electrons
       nuclear repulsion energy        77.9333710628 Hartrees.
 NAtoms=    2 NActive=    2 NUniq=    2 SFac= 1.00D+00 NAtFMM=   60 NAOKFM=F Big=F
 Integral buffers will be    131072 words long.
 Raffenetti 1 integral format.
 Two-electron integral symmetry is turned off.
 One-electron integrals computed using PRISM.
 NBasis=   100 RedAO= T EigKep=  1.47D-03  NBF=   100
 NBsUse=   100 1.00D-06 EigRej= -1.00D+00 NBFU=   100
 Initial guess from the checkpoint file:  "ar-dimer.chk"
 B after Tr=     0.000000    0.000000    0.000000
         Rot=    1.000000    0.000000    0.000000    0.000000 Ang=   0.00 deg.
 ExpMin= 4.87D-02 ExpMax= 5.45D+05 ExpMxC= 1.72D+03 IAcc=3 IRadAn=         5 AccDes= 0.00D+00
 Harris functional with IExCor=  205 and IRadAn=       5 diagonalized for initial guess.
[...]
 Counterpoise: doing calculation for fragment   1 using the basis set of the fragment.
 Basis read from rwf:  (5D, 7F)
    50 basis functions,   113 primitive gaussians,    59 cartesian basis functions
     9 alpha electrons        9 beta electrons
       nuclear repulsion energy         0.0000000000 Hartrees.
 NAtoms=    2 NActive=    1 NUniq=    1 SFac= 1.00D+00 NAtFMM=   60 NAOKFM=F Big=F
 Integral buffers will be    131072 words long.
 Raffenetti 1 integral format.
 Two-electron integral symmetry is turned off.
 One-electron integrals computed using PRISM.
 NBasis=    50 RedAO= T EigKep=  1.65D-02  NBF=    50
 NBsUse=    50 1.00D-06 EigRej= -1.00D+00 NBFU=    50
 Initial guess from the checkpoint file:  "ar-dimer.chk"
 B after Tr=    -0.000000   -0.000000   -0.047243
         Rot=    1.000000    0.000000    0.000000    0.000000 Ang=   0.00 deg.
 ExpMin= 4.87D-02 ExpMax= 5.45D+05 ExpMxC= 1.72D+03 IAcc=3 IRadAn=         5 AccDes= 0.00D+00
 Harris functional with IExCor=  205 and IRadAn=       5 diagonalized for initial guess.
 HarFok:  IExCor=  205 AccDes= 0.00D+00 IRadAn=         5 IDoV= 1 UseB2=F ITyADJ=14
 ICtDFT=  3500011 ScaDFX=  1.000000  1.000000  1.000000  1.000000
 FoFCou: FMM=F IPFlag=           0 FMFlag=      100000 FMFlg1=           0
         NFxFlg=           0 DoJE=T BraDBF=F KetDBF=T FulRan=T
         wScrn=  0.000000 ICntrl=       500 IOpCl=  0 I1Cent=   200000004 NGrid=           0
         NMat0=    1 NMatS0=      1 NMatT0=    0 NMatD0=    1 NMtDS0=    0 NMtDT0=    0
 Symmetry not used in FoFCou.
 Keep R1 ints in memory in canonical form, NReq=4735720.
 Requested convergence on RMS density matrix=1.00D-08 within 128 cycles.
 Requested convergence on MAX density matrix=1.00D-06.
 Requested convergence on             energy=1.00D-06.
 No special actions if energy rises.
 SCF Done:  E(RHF) =  -526.813352014     A.U. after    1 cycles
            NFock=  1  Conv=0.67D-14     -V/T= 2.0000
 ExpMin= 4.87D-02 ExpMax= 5.45D+05 ExpMxC= 1.72D+03 IAcc=3 IRadAn=         5 AccDes= 0.00D+00
 HarFok:  IExCor=  205 AccDes= 0.00D+00 IRadAn=         5 IDoV=-2 UseB2=F ITyADJ=14
 ICtDFT= 12500011 ScaDFX=  1.000000  1.000000  1.000000  1.000000
 Range of M.O.s used for correlation:     6    50
 NBasis=    50 NAE=     9 NBE=     9 NFC=     5 NFV=     0
 NROrb=     45 NOA=     4 NOB=     4 NVA=    41 NVB=    41
 Fully direct method using O(ONN) memory.
 JobTyp=1 Pass  1:  I=   6 to   9 NPSUse=  8 ParTrn=T ParDer=T DoDerP=T.
 Spin components of T(2) and E(2):
     alpha-alpha T2 =       0.8455470395D-02 E2=     -0.2637686082D-01
     alpha-beta  T2 =       0.4551898023D-01 E2=     -0.1581775119D+00
     beta-beta   T2 =       0.8455470395D-02 E2=     -0.2637686082D-01
 ANorm=    0.1030742413D+01
 E2 =    -0.2109312336D+00 EUMP2 =    -0.52702428324713D+03
          IDoAtm=10
          Differentiating once with respect to electric field.
                with respect to dipole field.
          Differentiating once with respect to nuclear coordinates.
 Keep R1 ints in memory in canonical form, NReq=4736237.
          There are     1 degrees of freedom in the 1st order CPHF.  IDoFFX=0 NUNeed=     1.
 LinEq1:  Iter=  0 NonCon=     1 RMS=1.12D-03 Max=1.06D-02 NDo=     1
 AX will form     1 AO Fock derivatives at one time.
 LinEq1:  Iter=  1 NonCon=     1 RMS=3.19D-04 Max=2.19D-03 NDo=     1
 LinEq1:  Iter=  2 NonCon=     1 RMS=2.90D-05 Max=2.07D-04 NDo=     1
 LinEq1:  Iter=  3 NonCon=     1 RMS=1.01D-06 Max=1.25D-05 NDo=     1
 LinEq1:  Iter=  4 NonCon=     1 RMS=7.56D-08 Max=6.92D-07 NDo=     1
 LinEq1:  Iter=  5 NonCon=     1 RMS=5.69D-09 Max=9.14D-08 NDo=     1
 LinEq1:  Iter=  6 NonCon=     1 RMS=2.08D-10 Max=2.67D-09 NDo=     1
 LinEq1:  Iter=  7 NonCon=     0 RMS=4.59D-12 Max=5.43D-11 NDo=     1
 Linear equations converged to 1.000D-10 1.000D-09 after     7 iterations.
 End of Minotr F.D. properties file   721 does not exist.
 End of Minotr F.D. properties file   722 does not exist.
 End of Minotr F.D. properties file   788 does not exist.
 Calling FoFJK, ICntrl=  10002127 FMM=F ISym2X=0 I1Cent= 0 IOpClX= 0 NMat=1 NMatS=1 NMatT=0.
 Cartesian Forces:  Max     0.000000000 RMS     0.000000000
 CPIOFr:  IOpCl= 0 IRwI=-1 IRwCP=  731 ICalc=  3 LCPTot=       15519 Len1MO=       42322 IndFrg=      184807
 CPIOFr:  IOpCl= 0 IRwI=-2 IRwCP=20731 ICalc=  4 LCPTot=       15519 Len1MO=       42322 IndFrg=      227129
 CPIOFr:  IOpCl= 0 IRwI= 4 IRwCP=20731 ICalc=  4 LCPTot=       15519 Len1MO=       42322 IndFrg=      227129
 Counterpoise: doing calculation for fragment   2 using the basis set of the fragment.
 Basis read from rwf:  (5D, 7F)
    50 basis functions,   113 primitive gaussians,    59 cartesian basis functions
     9 alpha electrons        9 beta electrons
       nuclear repulsion energy         0.0000000000 Hartrees.
 NAtoms=    2 NActive=    1 NUniq=    1 SFac= 1.00D+00 NAtFMM=   60 NAOKFM=F Big=F
 Integral buffers will be    131072 words long.
 Raffenetti 1 integral format.
 Two-electron integral symmetry is turned off.
 One-electron integrals computed using PRISM.
 NBasis=    50 RedAO= T EigKep=  1.65D-02  NBF=    50
 NBsUse=    50 1.00D-06 EigRej= -1.00D+00 NBFU=    50
 Initial guess from the checkpoint file:  "ar-dimer.chk"
 B after Tr=     0.000000    0.000000    0.047243
         Rot=    1.000000   -0.000000    0.000000   -0.000000 Ang=   0.00 deg.
 ExpMin= 4.87D-02 ExpMax= 5.45D+05 ExpMxC= 1.72D+03 IAcc=3 IRadAn=         5 AccDes= 0.00D+00
 Harris functional with IExCor=  205 and IRadAn=       5 diagonalized for initial guess.
 HarFok:  IExCor=  205 AccDes= 0.00D+00 IRadAn=         5 IDoV= 1 UseB2=F ITyADJ=14
 ICtDFT=  3500011 ScaDFX=  1.000000  1.000000  1.000000  1.000000
 FoFCou: FMM=F IPFlag=           0 FMFlag=      100000 FMFlg1=           0
         NFxFlg=           0 DoJE=T BraDBF=F KetDBF=T FulRan=T
         wScrn=  0.000000 ICntrl=       500 IOpCl=  0 I1Cent=   200000004 NGrid=           0
         NMat0=    1 NMatS0=      1 NMatT0=    0 NMatD0=    1 NMtDS0=    0 NMtDT0=    0
 Symmetry not used in FoFCou.
 Keep R1 ints in memory in canonical form, NReq=4735720.
 Requested convergence on RMS density matrix=1.00D-08 within 128 cycles.
 Requested convergence on MAX density matrix=1.00D-06.
 Requested convergence on             energy=1.00D-06.
 No special actions if energy rises.
 SCF Done:  E(RHF) =  -526.813352014     A.U. after    1 cycles
            NFock=  1  Conv=0.67D-14     -V/T= 2.0000
 ExpMin= 4.87D-02 ExpMax= 5.45D+05 ExpMxC= 1.72D+03 IAcc=3 IRadAn=         5 AccDes= 0.00D+00
 HarFok:  IExCor=  205 AccDes= 0.00D+00 IRadAn=         5 IDoV=-2 UseB2=F ITyADJ=14
 ICtDFT= 12500011 ScaDFX=  1.000000  1.000000  1.000000  1.000000
 Range of M.O.s used for correlation:     6    50
 NBasis=    50 NAE=     9 NBE=     9 NFC=     5 NFV=     0
 NROrb=     45 NOA=     4 NOB=     4 NVA=    41 NVB=    41
 Fully direct method using O(ONN) memory.
 JobTyp=1 Pass  1:  I=   6 to   9 NPSUse=  8 ParTrn=T ParDer=T DoDerP=T.
 Spin components of T(2) and E(2):
     alpha-alpha T2 =       0.8455470395D-02 E2=     -0.2637686082D-01
     alpha-beta  T2 =       0.4551898023D-01 E2=     -0.1581775119D+00
     beta-beta   T2 =       0.8455470395D-02 E2=     -0.2637686082D-01
 ANorm=    0.1030742413D+01
 E2 =    -0.2109312336D+00 EUMP2 =    -0.52702428324713D+03
          IDoAtm=01
          Differentiating once with respect to electric field.
                with respect to dipole field.
          Differentiating once with respect to nuclear coordinates.
 Keep R1 ints in memory in canonical form, NReq=4736237.
          There are     1 degrees of freedom in the 1st order CPHF.  IDoFFX=0 NUNeed=     1.
 LinEq1:  Iter=  0 NonCon=     1 RMS=1.12D-03 Max=1.06D-02 NDo=     1
 AX will form     1 AO Fock derivatives at one time.
 LinEq1:  Iter=  1 NonCon=     1 RMS=3.19D-04 Max=2.24D-03 NDo=     1
 LinEq1:  Iter=  2 NonCon=     1 RMS=2.90D-05 Max=2.09D-04 NDo=     1
 LinEq1:  Iter=  3 NonCon=     1 RMS=1.01D-06 Max=1.25D-05 NDo=     1
 LinEq1:  Iter=  4 NonCon=     1 RMS=7.56D-08 Max=6.92D-07 NDo=     1
 LinEq1:  Iter=  5 NonCon=     1 RMS=5.69D-09 Max=9.14D-08 NDo=     1
 LinEq1:  Iter=  6 NonCon=     1 RMS=2.08D-10 Max=2.67D-09 NDo=     1
 LinEq1:  Iter=  7 NonCon=     0 RMS=4.59D-12 Max=5.43D-11 NDo=     1
 Linear equations converged to 1.000D-10 1.000D-09 after     7 iterations.
 End of Minotr F.D. properties file   721 does not exist.
 End of Minotr F.D. properties file   722 does not exist.
 End of Minotr F.D. properties file   788 does not exist.
 Calling FoFJK, ICntrl=  10002127 FMM=F ISym2X=0 I1Cent= 0 IOpClX= 0 NMat=1 NMatS=1 NMatT=0.
 Cartesian Forces:  Max     0.000000000 RMS     0.000000000
 CPIOFr:  IOpCl= 0 IRwI=-1 IRwCP=  731 ICalc=  4 LCPTot=       15519 Len1MO=       42322 IndFrg=      227129
 CPIOFr:  IOpCl= 0 IRwI=-2 IRwCP=  731 ICalc=  0 LCPTot=       15519 Len1MO=       42322 IndFrg=       57841
 Counterpoise corrected energy =   -1054.048568199555
                   BSSE energy =       0.000000002099
              sum of fragments =   -1054.048566494253
           complexation energy =      -0.00 kcal/mole (raw)
           complexation energy =      -0.00 kcal/mole (corrected)
 -------------------------------------------------------------------
 Center     Atomic             Integrated Forces (Hartrees/Bohr)
 Number     Number              X              Y              Z
 -------------------------------------------------------------------
      1       18          -0.000000000   -0.000000000    0.000000549
      2       18           0.000000000    0.000000000   -0.000000549
 -------------------------------------------------------------------
 Integrated Cartesian Forces:  Max     0.000000549 RMS     0.000000317

 GradGradGradGradGradGradGradGradGradGradGradGradGradGradGradGradGradGrad
 Berny optimization.
 Internal  Forces:  Max     0.000000549 RMS     0.000000549
 Search for a local minimum.
 Step number   1 out of a maximum of   20 on scan point    81 out of    81
 All quantities printed in internal units (Hartrees-Bohrs-Radians)
 Mixed Optimization -- RFO/linear search
 Second derivative matrix not updated -- first step.
 The second derivative matrix:
                          R1
           R1           0.34590
 ITU=  0
     Eigenvalues --- 1000.00000
 RFO step:  Lambda= 0.00000000D+00 EMin= 1.00000000D+03
 Linear search not attempted -- first point.
 Iteration  1 RMS(Cart)=  0.00000000 RMS(Int)=  0.00000000
 Iteration  1 RMS(Cart)=  0.00000000 RMS(Int)=  0.00000000
 Variable       Old X    -DE/DX   Delta X   Delta X   Delta X     New X
                                 (Linear)    (Quad)   (Total)
    R1       18.89726  -0.00000   0.00000   0.00000   0.00000  18.89726
         Item               Value     Threshold  Converged?
 Maximum Force            0.000000     0.000450     YES
 RMS     Force            0.000000     0.000300     YES
 Maximum Displacement     0.000000     0.001800     YES
 RMS     Displacement     0.000000     0.001200     YES
 Predicted change in Energy=-3.903321D-21
 Optimization completed.
    -- Stationary point found.
                           ----------------------------
                           !   Optimized Parameters   !
                           ! (Angstroms and Degrees)  !
 --------------------------                            --------------------------
 ! Name  Definition              Value          Derivative Info.                !
 --------------------------------------------------------------------------------
 ! R1    R(1,2)                 10.0            -DE/DX =    0.0                 !
 --------------------------------------------------------------------------------
 Summary of Optimized Potential Surface Scan (add -1054.0 to energies):
                           1         2         3         4         5
     Eigenvalues --     0.12260   0.07333   0.03757   0.01182  -0.00659
           R1           2.00000   2.10000   2.20000   2.30000   2.40000
                           6         7         8         9        10
     Eigenvalues --    -0.01966  -0.02889  -0.03536  -0.03986  -0.04297
           R1           2.50000   2.60000   2.70000   2.80000   2.90000
                          11        12        13        14        15
     Eigenvalues --    -0.04509  -0.04652  -0.04747  -0.04809  -0.04848
           R1           3.00000   3.10000   3.20000   3.30000   3.40000
                          16        17        18        19        20
     Eigenvalues --    -0.04872  -0.04886  -0.04893  -0.04895  -0.04895
           R1           3.50000   3.60000   3.70000   3.80000   3.90000
                          21        22        23        24        25
     Eigenvalues --    -0.04893  -0.04891  -0.04888  -0.04885  -0.04882
           R1           4.00000   4.10000   4.20000   4.30000   4.40000
                          26        27        28        29        30
     Eigenvalues --    -0.04879  -0.04877  -0.04874  -0.04872  -0.04870
           R1           4.50000   4.60000   4.70000   4.80000   4.90000
                          31        32        33        34        35
     Eigenvalues --    -0.04869  -0.04868  -0.04866  -0.04865  -0.04864
           R1           5.00000   5.10000   5.20000   5.30000   5.40000
                          36        37        38        39        40
     Eigenvalues --    -0.04863  -0.04863  -0.04862  -0.04862  -0.04861
           R1           5.50000   5.60000   5.70000   5.80000   5.90000
                          41        42        43        44        45
     Eigenvalues --    -0.04861  -0.04860  -0.04860  -0.04860  -0.04859
           R1           6.00000   6.10000   6.20000   6.30000   6.40000
                          46        47        48        49        50
     Eigenvalues --    -0.04859  -0.04859  -0.04859  -0.04858  -0.04858
           R1           6.50000   6.60000   6.70000   6.80000   6.90000
                          51        52        53        54        55
     Eigenvalues --    -0.04858  -0.04858  -0.04858  -0.04858  -0.04858
           R1           7.00000   7.10000   7.20000   7.30000   7.40000
                          56        57        58        59        60
     Eigenvalues --    -0.04858  -0.04858  -0.04857  -0.04857  -0.04857
           R1           7.50000   7.60000   7.70000   7.80000   7.90000
                          61        62        63        64        65
     Eigenvalues --    -0.04857  -0.04857  -0.04857  -0.04857  -0.04857
           R1           8.00000   8.10000   8.20000   8.30000   8.40000
                          66        67        68        69        70
     Eigenvalues --    -0.04857  -0.04857  -0.04857  -0.04857  -0.04857
           R1           8.50000   8.60000   8.70000   8.80000   8.90000
                          71        72        73        74        75
     Eigenvalues --    -0.04857  -0.04857  -0.04857  -0.04857  -0.04857
           R1           9.00000   9.10000   9.20000   9.30000   9.40000
                          76        77        78        79        80
     Eigenvalues --    -0.04857  -0.04857  -0.04857  -0.04857  -0.04857
           R1           9.50000   9.60000   9.70000   9.80000   9.90000
                          81
     Eigenvalues --    -0.04857
           R1          10.00000
 GradGradGradGradGradGradGradGradGradGradGradGradGradGradGradGradGradGrad

                          Input orientation:                          
 ---------------------------------------------------------------------
 Center     Atomic      Atomic             Coordinates (Angstroms)
 Number     Number       Type             X           Y           Z
 ---------------------------------------------------------------------
      1         18           0       -0.000000   -0.000000   -4.000000
      2         18           0        0.000000    0.000000    6.000000
 ---------------------------------------------------------------------
 Symmetry turned off by external request.
 Stoichiometry    Ar2
 Framework group  D*H[C*(Ar.Ar)]
 Deg. of freedom     1
 Full point group                 D*H     NOp   8
 Rotational constants (GHZ):           0.0000000           0.2529274           0.2529274
 Mismatch for IA=      1 IOp=  3 Frag=      1 JA=      2 Frag=      2
 Mismatch for IA=      2 IOp=  3 Frag=      2 JA=      1 Frag=      1
 Symmetry turned off in CkCPSy: fragments do not conform to real system point group.
 Returning to input orientation because symmetry turned off.
 Unable to Open any file for archive entry.
 1\1\GINC-GRA1261\Scan\RMP2-FC\Aug-CC-pVTZ\Ar2\CROWLEY\25-Jan-2022\0\\#
 MP2/aug-cc-pvtz opt=modredundant counterpoise=2\\Title Card Required\\
 0,1\Ar,0.,0.,-4.\Ar,0.,0.,6.\\Version=ES64L-G16RevC.01\HF=-526.813352,
 -526.813352,-526.813352,-526.813352,-526.813352,-526.813352,-526.81335
 2,-526.813352,-526.813352,-526.813352,-526.813352,-526.813352,-526.813
 352,-526.813352,-526.813352,-526.813352,-526.813352,-526.813352,-526.8
 13352,-526.813352,-526.813352,-526.813352,-526.813352,-526.813352,-526
 .813352,-526.813352,-526.813352,-526.813352,-526.813352,-526.813352,-5
 26.813352,-526.813352,-526.813352,-526.813352,-526.813352,-526.813352,
 -526.813352,-526.813352,-526.813352,-526.813352,-526.813352,-526.81335
 2,-526.813352,-526.813352,-526.813352,-526.813352,-526.813352,-526.813
 352,-526.813352,-526.813352,-526.813352,-526.813352,-526.813352,-526.8
 13352,-526.813352,-526.813352,-526.813352,-526.813352,-526.813352,-526
 .813352,-526.813352,-526.813352,-526.813352,-526.813352,-526.813352,-5
 26.813352,-526.813352,-526.813352,-526.813352,-526.813352,-526.813352,
 -526.813352,-526.813352,-526.813352,-526.813352,-526.813352,-526.81335
 2,-526.813352,-526.813352,-526.813352,-526.813352\MP2=-527.0242832,-52
 7.0242832,-527.0242832,-527.0242832,-527.0242832,-527.0242832,-527.024
 2832,-527.0242832,-527.0242832,-527.0242832,-527.0242832,-527.0242832,
 -527.0242832,-527.0242832,-527.0242832,-527.0242832,-527.0242832,-527.
 0242832,-527.0242832,-527.0242832,-527.0242832,-527.0242832,-527.02428
 32,-527.0242832,-527.0242832,-527.0242832,-527.0242832,-527.0242832,-5
 27.0242832,-527.0242832,-527.0242832,-527.0242832,-527.0242832,-527.02
 42832,-527.0242832,-527.0242832,-527.0242832,-527.0242832,-527.0242832
 ,-527.0242832,-527.0242832,-527.0242832,-527.0242832,-527.0242832,-527
 .0242832,-527.0242832,-527.0242832,-527.0242832,-527.0242832,-527.0242
 832,-527.0242832,-527.0242832,-527.0242832,-527.0242832,-527.0242832,-
 527.0242832,-527.0242832,-527.0242832,-527.0242832,-527.0242832,-527.0
 242832,-527.0242832,-527.0242832,-527.0242832,-527.0242832,-527.024283
 2,-527.0242832,-527.0242832,-527.0242832,-527.0242832,-527.0242832,-52
 7.0242832,-527.0242832,-527.0242832,-527.0242832,-527.0242832,-527.024
 2832,-527.0242832,-527.0242832,-527.0242832,-527.0242832\RMSD=4.570e-0
 9,1.706e-10,3.407e-11,6.998e-12,1.686e-12,4.660e-13,1.109e-13,4.191e-1
 4,1.044e-14,2.448e-14,6.538e-15,2.409e-14,6.851e-15,2.447e-14,6.520e-1
 5,2.422e-14,6.709e-15,2.425e-14,6.717e-15,2.418e-14,6.549e-15,2.428e-1
 4,6.668e-15,2.443e-14,6.425e-15,2.441e-14,6.458e-15,2.421e-14,6.512e-1
 5,2.432e-14,6.636e-15,2.420e-14,6.698e-15,2.438e-14,6.822e-15,2.447e-1
 4,6.501e-15,2.441e-14,7.158e-15,2.465e-14,6.671e-15,2.456e-14,6.466e-1
 5,2.436e-14,6.445e-15,2.427e-14,6.340e-15,2.448e-14,7.158e-15,2.461e-1
 4,6.351e-15,2.432e-14,6.815e-15,2.439e-14,6.270e-15,2.510e-14,6.474e-1
 5,2.437e-14,6.599e-15,2.444e-14,6.603e-15,2.365e-14,6.818e-15,2.412e-1
 4,6.648e-15,2.380e-14,6.939e-15,2.367e-14,6.579e-15,2.404e-14,6.864e-1
 5,2.397e-14,6.474e-15,2.496e-14,6.117e-15,2.472e-14,6.284e-15,2.505e-1
 4,6.471e-15,2.466e-14,6.657e-15\PG=D*H [C*(Ar1.Ar1)]\\@
 The archive entry for this job was punched.


 BOOKS ARE LIGHTHOUSES ERECTED IN THE GREAT SEA OF TIME.
     -- E.P.WHIPPLE
 Job cpu time:       0 days  3 hours  3 minutes  1.5 seconds.
 Elapsed time:       0 days  0 hours 23 minutes 58.0 seconds.
 File lengths (MBytes):  RWF=     14 Int=      0 D2E=      0 Chk=      8 Scr=      1
 Normal termination of Gaussian 16 at Tue Jan 25 01:16:23 2022.
