 Entering Gaussian System, Link 0=g16
 Initial command:
 /opt/software/gaussian/g16.c01/l1.exe "/localscratch/crowley.57109905.0/Gau-6315.inp" -scrdir="/localscratch/crowley.57109905.0/"
 Entering Link 1 = /opt/software/gaussian/g16.c01/l1.exe PID=      6316.
  
 Copyright (c) 1988-2019, Gaussian, Inc.  All Rights Reserved.
  
 This is part of the Gaussian(R) 16 program.  It is based on
 the Gaussian(R) 09 system (copyright 2009, Gaussian, Inc.),
 the Gaussian(R) 03 system (copyright 2003, Gaussian, Inc.),
 the Gaussian(R) 98 system (copyright 1998, Gaussian, Inc.),
 the Gaussian(R) 94 system (copyright 1995, Gaussian, Inc.),
 the Gaussian 92(TM) system (copyright 1992, Gaussian, Inc.),
 the Gaussian 90(TM) system (copyright 1990, Gaussian, Inc.),
 the Gaussian 88(TM) system (copyright 1988, Gaussian, Inc.),
 the Gaussian 86(TM) system (copyright 1986, Carnegie Mellon
 University), and the Gaussian 82(TM) system (copyright 1983,
 Carnegie Mellon University). Gaussian is a federally registered
 trademark of Gaussian, Inc.
  
 This software contains proprietary and confidential information,
 including trade secrets, belonging to Gaussian, Inc.
  
 This software is provided under written license and may be
 used, copied, transmitted, or stored only in accord with that
 written license.
  
 The following legend is applicable only to US Government
 contracts under FAR:
  
                    RESTRICTED RIGHTS LEGEND
  
 Use, reproduction and disclosure by the US Government is
 subject to restrictions as set forth in subparagraphs (a)
 and (c) of the Commercial Computer Software - Restricted
 Rights clause in FAR 52.227-19.
  
 Gaussian, Inc.
 340 Quinnipiac St., Bldg. 40, Wallingford CT 06492
  
  
 ---------------------------------------------------------------
 Warning -- This program may not be used in any manner that
 competes with the business of Gaussian, Inc. or will provide
 assistance to any competitor of Gaussian, Inc.  The licensee
 of this program is prohibited from giving any competitor of
 Gaussian, Inc. access to this program.  By using this program,
 the user acknowledges that Gaussian, Inc. is engaged in the
 business of creating and licensing software in the field of
 computational chemistry and represents and warrants to the
 licensee that it is not a competitor of Gaussian, Inc. and that
 it will not use this program in any manner prohibited above.
 ---------------------------------------------------------------
  

 Cite this work as:
 Gaussian 16, Revision C.01,
 M. J. Frisch, G. W. Trucks, H. B. Schlegel, G. E. Scuseria, 
 M. A. Robb, J. R. Cheeseman, G. Scalmani, V. Barone, 
 G. A. Petersson, H. Nakatsuji, X. Li, M. Caricato, A. V. Marenich, 
 J. Bloino, B. G. Janesko, R. Gomperts, B. Mennucci, H. P. Hratchian, 
 J. V. Ortiz, A. F. Izmaylov, J. L. Sonnenberg, D. Williams-Young, 
 F. Ding, F. Lipparini, F. Egidi, J. Goings, B. Peng, A. Petrone, 
 T. Henderson, D. Ranasinghe, V. G. Zakrzewski, J. Gao, N. Rega, 
 G. Zheng, W. Liang, M. Hada, M. Ehara, K. Toyota, R. Fukuda, 
 J. Hasegawa, M. Ishida, T. Nakajima, Y. Honda, O. Kitao, H. Nakai, 
 T. Vreven, K. Throssell, J. A. Montgomery, Jr., J. E. Peralta, 
 F. Ogliaro, M. J. Bearpark, J. J. Heyd, E. N. Brothers, K. N. Kudin, 
 V. N. Staroverov, T. A. Keith, R. Kobayashi, J. Normand, 
 K. Raghavachari, A. P. Rendell, J. C. Burant, S. S. Iyengar, 
 J. Tomasi, M. Cossi, J. M. Millam, M. Klene, C. Adamo, R. Cammi, 
 J. W. Ochterski, R. L. Martin, K. Morokuma, O. Farkas, 
 J. B. Foresman, and D. J. Fox, Gaussian, Inc., Wallingford CT, 2019.
 
 ******************************************
 Gaussian 16:  ES64L-G16RevC.01  3-Jul-2019
                25-Jan-2022 
 ******************************************
 %chk=co2-dimer.chk
 %nproc=8
 Will use up to    8 processors via shared memory.
 %mem=2000MB
 -----------------------------------------
 #MP2/aug-cc-pvtz opt=tight counterpoise=2
 -----------------------------------------
 1/7=10,18=20,19=15,38=1,62=2/1,3;
 2/9=110,12=2,17=6,18=5,40=1/2;
 1/7=10,18=20,19=15,38=1,53=2,62=2,63=101/22;
 3/5=16,6=1,7=10,11=9,25=1,30=1,71=1/1,2,3;
 4//1;
 5/5=2,38=5/2;
 8/6=4,10=1/1;
 9/15=2,16=-3/6;
 10/5=1/2;
 6/7=2,8=2,9=2,10=2/1;
 7/7=1,12=2,33=-1/1,2,3,16;
 1/7=10,18=20,19=15,53=2,62=2,63=101/22;
 3/5=7,6=11,7=10,11=9,25=1,30=1,71=1,82=7/1,2,3;
 4//1;
 5/5=2,38=5/2;
 8/6=4,10=1/1;
 9/15=2,16=-3/6;
 10/5=1/2;
 6/7=2,8=2,9=2,10=2/1;
 7/7=1,12=2,33=-1/1,2,3,16;
 1/7=10,18=20,19=15,53=2,62=2,63=101/22(-8);
 7/9=1,44=-1,126=2/16;
 1/7=10,18=20,19=15,62=2/3(2);
 2/9=110/2;
 99//99;
 2/9=110/2;
 1/7=10,18=20,19=15,53=3,62=2,63=101/22;
 3/5=7,6=11,7=10,11=9,25=1,30=1,71=1,82=7/1,2,3;
 4/5=5,16=3,69=1/1;
 5/5=2,38=5/2;
 8/6=4,10=1/1;
 9/15=2,16=-3/6;
 10/5=1/2;
 7/7=1,12=2,33=-1/1,2,3,16;
 1/7=10,18=20,19=15,53=3,62=2,63=101/22(-7);
 7/9=1,44=-1,126=2/16;
 1/7=10,18=20,19=15,62=2/3(-11);
 2/9=110/2;
 99/9=10/99;
 -------------------
 Title Card Required
 -------------------
 Symbolic Z-matrix:
 Charge =  0 Multiplicity = 1 in supermolecule
 Charge =  0 Multiplicity = 1 in fragment      1.
 Charge =  0 Multiplicity = 1 in fragment      2.
 C(Fragment=1)        -2.51131  -0.27903   0. 
 O(Fragment=1)        -3.76971  -0.27903   0. 
 O(Fragment=1)        -1.25291  -0.27903   0. 
 C(Fragment=2)        -1.2773   -2.42707   0. 
 O(Fragment=2)        -2.53538  -2.39849   0. 
 O(Fragment=2)        -0.01923  -2.45564   0. 
 
 Add virtual bond connecting atoms C4         and O3         Dist= 4.06D+00.
 Add virtual bond connecting atoms O5         and C1         Dist= 4.01D+00.

 GradGradGradGradGradGradGradGradGradGradGradGradGradGradGradGradGradGrad
 Berny optimization.
 Initialization pass.
                           ----------------------------
                           !    Initial Parameters    !
                           ! (Angstroms and Degrees)  !
 --------------------------                            --------------------------
 ! Name  Definition              Value          Derivative Info.                !
 --------------------------------------------------------------------------------
 ! R1    R(1,2)                  1.2584         estimate D2E/DX2                !
 ! R2    R(1,3)                  1.2584         estimate D2E/DX2                !
 ! R3    R(1,5)                  2.1196         estimate D2E/DX2                !
 ! R4    R(3,4)                  2.1482         estimate D2E/DX2                !
 ! R5    R(4,5)                  1.2584         estimate D2E/DX2                !
 ! R6    R(4,6)                  1.2584         estimate D2E/DX2                !
 ! A1    A(2,1,5)               89.3494         estimate D2E/DX2                !
 ! A2    A(3,1,5)               90.6506         estimate D2E/DX2                !
 ! A3    A(1,3,4)               89.3494         estimate D2E/DX2                !
 ! A4    A(3,4,5)               89.3494         estimate D2E/DX2                !
 ! A5    A(3,4,6)               90.6506         estimate D2E/DX2                !
 ! A6    A(1,5,4)               90.6506         estimate D2E/DX2                !
 ! A7    L(2,1,3,5,-1)         180.0            estimate D2E/DX2                !
 ! A8    L(5,4,6,3,-1)         180.0            estimate D2E/DX2                !
 ! A9    L(2,1,3,5,-2)         180.0            estimate D2E/DX2                !
 ! A10   L(5,4,6,3,-2)         180.0            estimate D2E/DX2                !
 ! D1    D(5,1,3,4)              0.0            estimate D2E/DX2                !
 ! D2    D(2,1,5,4)            180.0            estimate D2E/DX2                !
 ! D3    D(3,1,5,4)              0.0            estimate D2E/DX2                !
 ! D4    D(1,3,4,5)              0.0            estimate D2E/DX2                !
 ! D5    D(1,3,4,6)            180.0            estimate D2E/DX2                !
 ! D6    D(3,4,5,1)              0.0            estimate D2E/DX2                !
 --------------------------------------------------------------------------------
 Trust Radius=3.00D-01 FncErr=1.00D-07 GrdErr=1.00D-07 EigMax=2.50D+02 EigMin=1.00D-04
 Number of steps in this run=     32 maximum allowed number of steps=    100.
 GradGradGradGradGradGradGradGradGradGradGradGradGradGradGradGradGradGrad

                          Input orientation:                          
 ---------------------------------------------------------------------
 Center     Atomic      Atomic             Coordinates (Angstroms)
 Number     Number       Type             X           Y           Z
 ---------------------------------------------------------------------
      1          6           0       -2.511312   -0.279035    0.000000
      2          8           0       -3.769712   -0.279035    0.000000
      3          8           0       -1.252912   -0.279035    0.000000
      4          6           0       -1.277304   -2.427069    0.000000
      5          8           0       -2.535380   -2.398492    0.000000
      6          8           0       -0.019229   -2.455645    0.000000
 ---------------------------------------------------------------------
                    Distance matrix (angstroms):
                    1          2          3          4          5
     1  C    0.000000
     2  O    1.258400   0.000000
     3  O    1.258400   2.516800   0.000000
     4  C    2.477262   3.290311   2.148172   0.000000
     5  O    2.119594   2.452688   2.477262   1.258400   0.000000
     6  O    3.308793   4.336330   2.501920   1.258400   2.516800
                    6
     6  O    0.000000
 Stoichiometry    C2O4
 Framework group  CS[SG(C2O4)]
 Deg. of freedom     9
 Full point group                 CS      NOp   2
 Largest Abelian subgroup         CS      NOp   2
 Largest concise Abelian subgroup C1      NOp   1
                         Standard orientation:                         
 ---------------------------------------------------------------------
 Center     Atomic      Atomic             Coordinates (Angstroms)
 Number     Number       Type             X           Y           Z
 ---------------------------------------------------------------------
      1          6           0       -1.059729   -0.641234    0.000000
      2          8           0       -1.031153   -1.899309    0.000000
      3          8           0       -1.088305    0.616842    0.000000
      4          6           0        1.059729    0.641234    0.000000
      5          8           0        1.059729   -0.617166    0.000000
      6          8           0        1.059729    1.899634    0.000000
 ---------------------------------------------------------------------
 Rotational constants (GHZ):           8.9586877           2.8094863           2.1387609
 Counterpoise: doing full-system calculation.
 Standard basis: Aug-CC-pVTZ (5D, 7F)
 There are   222 symmetry adapted cartesian basis functions of A'  symmetry.
 There are   108 symmetry adapted cartesian basis functions of A"  symmetry.
 There are   180 symmetry adapted basis functions of A'  symmetry.
 There are    96 symmetry adapted basis functions of A"  symmetry.
   276 basis functions,   432 primitive gaussians,   330 cartesian basis functions
    22 alpha electrons       22 beta electrons
       nuclear repulsion energy       203.3727458413 Hartrees.
 NAtoms=    6 NActive=    6 NUniq=    6 SFac= 1.00D+00 NAtFMM=   60 NAOKFM=F Big=F
 Integral buffers will be    131072 words long.
 Raffenetti 1 integral format.
 Two-electron integral symmetry is turned on.
 One-electron integrals computed using PRISM.
 NBasis=   276 RedAO= T EigKep=  1.13D-04  NBF=   180    96
 NBsUse=   276 1.00D-06 EigRej= -1.00D+00 NBFU=   180    96
 ExpMin= 3.57D-02 ExpMax= 1.53D+04 ExpMxC= 5.22D+02 IAcc=3 IRadAn=         5 AccDes= 0.00D+00
 Harris functional with IExCor=  205 and IRadAn=       5 diagonalized for initial guess.
 HarFok:  IExCor=  205 AccDes= 0.00D+00 IRadAn=         5 IDoV= 1 UseB2=F ITyADJ=14
 ICtDFT=  3500011 ScaDFX=  1.000000  1.000000  1.000000  1.000000
 FoFCou: FMM=F IPFlag=           0 FMFlag=      100000 FMFlg1=           0
         NFxFlg=           0 DoJE=T BraDBF=F KetDBF=T FulRan=T
         wScrn=  0.000000 ICntrl=       500 IOpCl=  0 I1Cent=   200000004 NGrid=           0
         NMat0=    1 NMatS0=      1 NMatT0=    0 NMatD0=    1 NMtDS0=    0 NMtDT0=    0
 Petite list used in FoFCou.
 Initial guess orbital symmetries:
       Occupied  (A') (A') (A') (A') (A') (A') (A') (A') (A') (A')
                 (A') (A') (A') (A') (A') (A") (A") (A') (A") (A')
                 (A") (A')
       Virtual   (A') (A") (A") (A') (A') (A') (A') (A") (A') (A')
                 (A') (A') (A") (A') (A") (A') (A') (A") (A') (A")
                 (A') (A') (A') (A') (A") (A') (A') (A") (A') (A')
                 (A') (A') (A") (A') (A") (A") (A') (A") (A") (A')
                 (A') (A') (A') (A') (A') (A') (A") (A") (A') (A')
                 (A') (A") (A') (A') (A") (A") (A') (A') (A') (A')
                 (A") (A") (A') (A') (A") (A') (A') (A') (A') (A")
                 (A") (A') (A') (A') (A") (A") (A") (A') (A") (A')
                 (A') (A') (A") (A') (A") (A') (A') (A') (A') (A")
                 (A') (A") (A") (A') (A") (A') (A') (A") (A') (A")
                 (A') (A') (A') (A') (A') (A') (A") (A') (A") (A")
                 (A") (A') (A') (A') (A') (A") (A") (A') (A') (A")
                 (A') (A") (A') (A') (A') (A") (A') (A") (A') (A')
                 (A") (A') (A') (A") (A") (A') (A') (A') (A") (A')
                 (A') (A") (A") (A') (A") (A') (A") (A') (A') (A')
                 (A") (A") (A') (A") (A") (A') (A') (A') (A') (A')
                 (A') (A') (A") (A") (A") (A') (A") (A') (A') (A')
                 (A") (A") (A') (A") (A") (A') (A') (A") (A') (A')
                 (A") (A') (A') (A') (A') (A") (A") (A') (A') (A')
                 (A') (A') (A') (A") (A") (A') (A') (A') (A') (A')
                 (A") (A") (A') (A') (A") (A') (A") (A") (A') (A")
                 (A') (A") (A') (A") (A") (A") (A') (A') (A') (A')
                 (A") (A") (A') (A') (A") (A") (A') (A') (A") (A")
                 (A') (A') (A') (A') (A') (A') (A') (A') (A') (A")
                 (A") (A") (A') (A") (A') (A') (A') (A') (A') (A')
                 (A') (A') (A') (A')
 The electronic state of the initial guess is 1-A'.
 Requested convergence on RMS density matrix=1.00D-08 within 128 cycles.
 Requested convergence on MAX density matrix=1.00D-06.
 Requested convergence on             energy=1.00D-06.
 No special actions if energy rises.
 SCF Done:  E(RHF) =  -375.267439050     A.U. after   13 cycles
            NFock= 13  Conv=0.55D-08     -V/T= 2.0048
 ExpMin= 3.57D-02 ExpMax= 1.53D+04 ExpMxC= 5.22D+02 IAcc=3 IRadAn=         5 AccDes= 0.00D+00
 HarFok:  IExCor=  205 AccDes= 0.00D+00 IRadAn=         5 IDoV=-2 UseB2=F ITyADJ=14
 ICtDFT= 12500011 ScaDFX=  1.000000  1.000000  1.000000  1.000000
 Range of M.O.s used for correlation:     7   276
 NBasis=   276 NAE=    22 NBE=    22 NFC=     6 NFV=     0
 NROrb=    270 NOA=    16 NOB=    16 NVA=   254 NVB=   254

 **** Warning!!: The largest alpha MO coefficient is  0.19465440D+02

 Disk-based method using ON**2 memory for 16 occupieds at a time.
 Estimated scratch disk usage=  1093986296 words.
 Actual    scratch disk usage=  1002382328 words.
 JobTyp=1 Pass  1:  I=   7 to  22 NPSUse=  8 ParTrn=T ParDer=T DoDerP=T.
 Spin components of T(2) and E(2):
     alpha-alpha T2 =       0.5413507414D-01 E2=     -0.1753213145D+00
     alpha-beta  T2 =       0.2664751908D+00 E2=     -0.9427756740D+00
     beta-beta   T2 =       0.5413507414D-01 E2=     -0.1753213145D+00
 ANorm=    0.1172495347D+01
 E2 =    -0.1293418303D+01 EUMP2 =    -0.37656085735333D+03
          IDoAtm=111111
          Differentiating once with respect to electric field.
                with respect to dipole field.
          Differentiating once with respect to nuclear coordinates.
          There are     1 degrees of freedom in the 1st order CPHF.  IDoFFX=0 NUNeed=     1.
 LinEq1:  Iter=  0 NonCon=     1 RMS=6.33D-03 Max=2.22D-01 NDo=     1
 AX will form     1 AO Fock derivatives at one time.
 LinEq1:  Iter=  1 NonCon=     1 RMS=1.99D-03 Max=3.07D-02 NDo=     1
 LinEq1:  Iter=  2 NonCon=     1 RMS=8.12D-04 Max=1.71D-02 NDo=     1
 LinEq1:  Iter=  3 NonCon=     1 RMS=3.46D-04 Max=6.18D-03 NDo=     1
 LinEq1:  Iter=  4 NonCon=     1 RMS=1.36D-04 Max=2.55D-03 NDo=     1
 LinEq1:  Iter=  5 NonCon=     1 RMS=5.26D-05 Max=9.17D-04 NDo=     1
 LinEq1:  Iter=  6 NonCon=     1 RMS=1.30D-05 Max=2.95D-04 NDo=     1
 LinEq1:  Iter=  7 NonCon=     1 RMS=3.37D-06 Max=6.44D-05 NDo=     1
 LinEq1:  Iter=  8 NonCon=     1 RMS=8.42D-07 Max=1.55D-05 NDo=     1
 LinEq1:  Iter=  9 NonCon=     1 RMS=3.77D-07 Max=8.58D-06 NDo=     1
 LinEq1:  Iter= 10 NonCon=     1 RMS=2.31D-07 Max=3.82D-06 NDo=     1
 LinEq1:  Iter= 11 NonCon=     1 RMS=5.33D-08 Max=6.09D-07 NDo=     1
 LinEq1:  Iter= 12 NonCon=     1 RMS=1.02D-08 Max=1.97D-07 NDo=     1
 LinEq1:  Iter= 13 NonCon=     1 RMS=5.57D-09 Max=9.42D-08 NDo=     1
 LinEq1:  Iter= 14 NonCon=     1 RMS=1.36D-09 Max=2.32D-08 NDo=     1
 LinEq1:  Iter= 15 NonCon=     1 RMS=3.37D-10 Max=5.62D-09 NDo=     1
 LinEq1:  Iter= 16 NonCon=     1 RMS=8.95D-11 Max=1.51D-09 NDo=     1
 LinEq1:  Iter= 17 NonCon=     0 RMS=2.55D-11 Max=6.32D-10 NDo=     1
 Linear equations converged to 1.000D-10 1.000D-09 after    17 iterations.
 End of Minotr F.D. properties file   721 does not exist.
 End of Minotr F.D. properties file   722 does not exist.
 End of Minotr F.D. properties file   788 does not exist.

 **********************************************************************

            Population analysis using the SCF Density.

 **********************************************************************

 Orbital symmetries:
       Occupied  (A') (A') (A') (A') (A') (A') (A') (A') (A') (A')
                 (A') (A') (A') (A') (A') (A") (A") (A') (A') (A")
                 (A") (A')
       Virtual   (A') (A') (A") (A') (A') (A") (A') (A') (A") (A")
                 (A') (A') (A") (A') (A') (A") (A') (A') (A') (A")
                 (A') (A') (A') (A') (A") (A') (A') (A") (A') (A')
                 (A') (A") (A') (A') (A") (A") (A') (A") (A") (A')
                 (A') (A') (A') (A') (A') (A') (A") (A') (A') (A")
                 (A") (A') (A') (A') (A") (A") (A') (A') (A') (A')
                 (A") (A") (A') (A') (A") (A') (A') (A") (A') (A")
                 (A') (A') (A') (A") (A') (A') (A") (A") (A") (A')
                 (A') (A") (A') (A') (A") (A') (A') (A') (A') (A")
                 (A') (A") (A") (A') (A") (A') (A') (A") (A') (A")
                 (A') (A') (A') (A') (A') (A') (A") (A') (A") (A")
                 (A') (A") (A') (A') (A') (A') (A") (A") (A") (A')
                 (A') (A") (A') (A') (A") (A") (A') (A') (A') (A")
                 (A') (A") (A') (A') (A") (A') (A') (A') (A") (A')
                 (A") (A') (A") (A") (A') (A") (A') (A') (A') (A')
                 (A") (A") (A") (A") (A') (A') (A') (A') (A') (A')
                 (A") (A") (A') (A') (A") (A") (A') (A') (A') (A')
                 (A') (A") (A") (A") (A") (A') (A') (A') (A') (A")
                 (A") (A') (A') (A') (A') (A') (A") (A") (A') (A')
                 (A') (A') (A') (A") (A") (A') (A') (A') (A') (A')
                 (A") (A") (A') (A') (A") (A') (A") (A") (A') (A")
                 (A') (A") (A') (A") (A") (A") (A') (A') (A') (A')
                 (A") (A") (A') (A') (A") (A') (A") (A') (A") (A")
                 (A') (A') (A') (A') (A') (A') (A') (A') (A') (A")
                 (A") (A") (A") (A') (A') (A') (A') (A') (A') (A')
                 (A') (A') (A') (A')
 The electronic state is 1-A'.
 Alpha  occ. eigenvalues --  -20.67376 -20.67205 -20.67108 -20.66814 -11.52218
 Alpha  occ. eigenvalues --  -11.52079  -1.51361  -1.46753  -1.43922  -1.43054
 Alpha  occ. eigenvalues --   -0.83228  -0.80981  -0.76227  -0.72782  -0.72559
 Alpha  occ. eigenvalues --   -0.70422  -0.66396  -0.61872  -0.55582  -0.54822
 Alpha  occ. eigenvalues --   -0.53707  -0.52760
 Alpha virt. eigenvalues --    0.04157   0.05516   0.06688   0.07677   0.09148
 Alpha virt. eigenvalues --    0.09554   0.09995   0.10631   0.12650   0.13662
 Alpha virt. eigenvalues --    0.14179   0.15150   0.15693   0.16381   0.18786
 Alpha virt. eigenvalues --    0.19931   0.20015   0.20528   0.22714   0.23306
 Alpha virt. eigenvalues --    0.24003   0.24864   0.25588   0.26794   0.27454
 Alpha virt. eigenvalues --    0.28681   0.29522   0.30075   0.33662   0.37985
 Alpha virt. eigenvalues --    0.38583   0.40190   0.41310   0.42440   0.43369
 Alpha virt. eigenvalues --    0.46467   0.47267   0.50913   0.51447   0.52417
 Alpha virt. eigenvalues --    0.53073   0.57155   0.60345   0.62714   0.63225
 Alpha virt. eigenvalues --    0.68802   0.69019   0.69747   0.70574   0.70672
 Alpha virt. eigenvalues --    0.73086   0.75995   0.78272   0.79809   0.79859
 Alpha virt. eigenvalues --    0.80067   0.82246   0.82939   0.85291   0.85624
 Alpha virt. eigenvalues --    0.88128   0.89413   0.92545   0.94732   0.95963
 Alpha virt. eigenvalues --    0.99662   1.02810   1.06070   1.06084   1.06345
 Alpha virt. eigenvalues --    1.07442   1.08662   1.09567   1.10483   1.10963
 Alpha virt. eigenvalues --    1.14681   1.15544   1.19603   1.21583   1.21715
 Alpha virt. eigenvalues --    1.22338   1.29105   1.29309   1.31147   1.33856
 Alpha virt. eigenvalues --    1.36195   1.38640   1.39198   1.40284   1.41500
 Alpha virt. eigenvalues --    1.42192   1.46117   1.46485   1.49008   1.51200
 Alpha virt. eigenvalues --    1.54032   1.55542   1.57270   1.61232   1.66642
 Alpha virt. eigenvalues --    1.67090   1.72937   1.86165   1.87171   1.94161
 Alpha virt. eigenvalues --    1.99460   2.09394   2.11331   2.13563   2.17219
 Alpha virt. eigenvalues --    2.18394   2.18663   2.21071   2.23581   2.25289
 Alpha virt. eigenvalues --    2.29375   2.30175   2.30325   2.32373   2.32475
 Alpha virt. eigenvalues --    2.34634   2.35619   2.36709   2.37977   2.39074
 Alpha virt. eigenvalues --    2.40070   2.40179   2.41401   2.42305   2.46939
 Alpha virt. eigenvalues --    2.49416   2.52836   2.53237   2.54009   2.54475
 Alpha virt. eigenvalues --    2.65644   2.70024   2.71091   2.71247   2.75896
 Alpha virt. eigenvalues --    2.76818   2.77297   2.79209   2.81988   2.83324
 Alpha virt. eigenvalues --    2.84708   2.86006   2.88798   2.91713   2.95657
 Alpha virt. eigenvalues --    2.98428   3.00065   3.07345   3.07694   3.09061
 Alpha virt. eigenvalues --    3.10576   3.15811   3.23082   3.32544   3.35517
 Alpha virt. eigenvalues --    3.43785   3.44808   3.46413   3.48809   3.50009
 Alpha virt. eigenvalues --    3.52744   3.55599   3.66592   3.69910   3.71972
 Alpha virt. eigenvalues --    3.81086   3.83003   3.83324   3.85913   3.88780
 Alpha virt. eigenvalues --    3.92432   3.95549   4.00000   4.03773   4.09514
 Alpha virt. eigenvalues --    4.16464   4.21155   4.38401   4.45475   4.45901
 Alpha virt. eigenvalues --    4.57049   4.67048   4.67204   4.86484   4.88535
 Alpha virt. eigenvalues --    4.90740   4.92567   5.41756   5.42569   5.42827
 Alpha virt. eigenvalues --    5.49270   5.57162   5.62331   6.36434   6.43120
 Alpha virt. eigenvalues --    6.45776   6.48841   6.53637   6.54998   6.63092
 Alpha virt. eigenvalues --    6.66585   6.67607   6.68489   6.69180   6.76127
 Alpha virt. eigenvalues --    6.81536   6.85508   6.85759   6.88955   6.89775
 Alpha virt. eigenvalues --    6.90445   6.95067   6.95876   6.97740   7.00323
 Alpha virt. eigenvalues --    7.07914   7.09283   7.09965   7.13421   7.17308
 Alpha virt. eigenvalues --    7.18855   7.19697   7.21688   7.22537   7.24152
 Alpha virt. eigenvalues --    7.24366   7.26978   7.30750   7.34791   7.37422
 Alpha virt. eigenvalues --    7.45159   7.48577   7.61687   7.62705   7.65828
 Alpha virt. eigenvalues --    7.69073   7.80100   7.82149   7.83801   7.90745
 Alpha virt. eigenvalues --    7.97512   7.98432   8.04575  12.20954  12.91301
 Alpha virt. eigenvalues --   14.56464  15.26125  17.47143  17.57127
          Condensed to atoms (all electrons):
               1          2          3          4          5          6
     1  C    4.262688   0.560462   0.543599  -0.024921  -0.043442  -0.001818
     2  O    0.560462   7.932184  -0.083842  -0.001511  -0.039765  -0.000037
     3  O    0.543599  -0.083842   7.992869  -0.042322  -0.038031  -0.032252
     4  C   -0.024921  -0.001511  -0.042322   4.272545   0.540731   0.558461
     5  O   -0.043442  -0.039765  -0.038031   0.540731   7.993107  -0.084216
     6  O   -0.001818  -0.000037  -0.032252   0.558461  -0.084216   7.924417
 Mulliken charges:
               1
     1  C    0.703432
     2  O   -0.367490
     3  O   -0.340021
     4  C    0.697017
     5  O   -0.328383
     6  O   -0.364555
 Sum of Mulliken charges =  -0.00000
 Mulliken charges with hydrogens summed into heavy atoms:
               1
     1  C    0.703432
     2  O   -0.367490
     3  O   -0.340021
     4  C    0.697017
     5  O   -0.328383
     6  O   -0.364555
         Mulliken charges condensed to fragments:
      1     -0.004080
      2      0.004080
 Electronic spatial extent (au):  <R**2>=            498.0735
 Charge=             -0.0000 electrons
 Dipole moment (field-independent basis, Debye):
    X=              0.0471    Y=              0.0131    Z=              0.0000  Tot=              0.0489
 Quadrupole moment (field-independent basis, Debye-Ang):
   XX=            -31.1740   YY=            -40.6182   ZZ=            -30.4941
   XY=              0.0254   XZ=              0.0000   YZ=              0.0000
 Traceless Quadrupole moment (field-independent basis, Debye-Ang):
   XX=              2.9214   YY=             -6.5228   ZZ=              3.6014
   XY=              0.0254   XZ=              0.0000   YZ=              0.0000
 Octapole moment (field-independent basis, Debye-Ang**2):
  XXX=              0.1442  YYY=              0.1567  ZZZ=              0.0000  XYY=              0.0013
  XXY=             -0.1955  XXZ=              0.0000  XZZ=              0.0244  YZZ=              0.0038
  YYZ=              0.0000  XYZ=              0.0000
 Hexadecapole moment (field-independent basis, Debye-Ang**3):
 XXXX=           -233.6593 YYYY=           -336.6382 ZZZZ=            -24.7862 XXXY=            -61.9953
 XXXZ=              0.0000 YYYX=            -83.7344 YYYZ=              0.0000 ZZZX=              0.0000
 ZZZY=              0.0000 XXYY=           -104.1215 XXZZ=            -42.8810 YYZZ=            -56.5312
 XXYZ=              0.0000 YYXZ=              0.0000 ZZXY=            -20.5173
 N-N= 2.033727458413D+02 E-N=-1.291558194885D+03  KE= 3.734623960311D+02
 Symmetry A'   KE= 3.569935686527D+02
 Symmetry A"   KE= 1.646882737838D+01
 Calling FoFJK, ICntrl=  10002127 FMM=F ISym2X=1 I1Cent= 0 IOpClX= 0 NMat=1 NMatS=1 NMatT=0.
 ***** Axes restored to original set *****
 Cartesian Forces:  Max     0.138893239 RMS     0.065028059
 CPIOFr:  IOpCl= 0 IRwI=-1 IRwCP=  731 ICalc= -1 LCPTot=      115733 Len1MO=      309910 IndFrg=      115733
 CPIOFr:  IOpCl= 0 IRwI=-1 IRwCP=  731 ICalc=  0 LCPTot=      115733 Len1MO=      309910 IndFrg=      425643
 Counterpoise: doing calculation for fragment   1 using the basis set of the full-system, NewBq=T
 Basis read from rwf:  (5D, 7F)
 There are   222 symmetry adapted cartesian basis functions of A'  symmetry.
 There are   108 symmetry adapted cartesian basis functions of A"  symmetry.
 There are   180 symmetry adapted basis functions of A'  symmetry.
 There are    96 symmetry adapted basis functions of A"  symmetry.
   276 basis functions,   432 primitive gaussians,   330 cartesian basis functions
    11 alpha electrons       11 beta electrons
       nuclear repulsion energy        53.8260354401 Hartrees.
 NAtoms=    6 NActive=    6 NUniq=    6 SFac= 1.00D+00 NAtFMM=   60 NAOKFM=F Big=F
 Integral buffers will be    131072 words long.
 Raffenetti 1 integral format.
 Two-electron integral symmetry is turned on.
 One-electron integrals computed using PRISM.
 NBasis=   276 RedAO= T EigKep=  1.13D-04  NBF=   180    96
 NBsUse=   276 1.00D-06 EigRej= -1.00D+00 NBFU=   180    96
 ExpMin= 3.57D-02 ExpMax= 1.53D+04 ExpMxC= 5.22D+02 IAcc=3 IRadAn=         5 AccDes= 0.00D+00
 Harris functional with IExCor=  205 and IRadAn=       5 diagonalized for initial guess.
 HarFok:  IExCor=  205 AccDes= 0.00D+00 IRadAn=         5 IDoV= 1 UseB2=F ITyADJ=14
 ICtDFT=  3500011 ScaDFX=  1.000000  1.000000  1.000000  1.000000
 FoFCou: FMM=F IPFlag=           0 FMFlag=      100000 FMFlg1=           0
         NFxFlg=           0 DoJE=T BraDBF=F KetDBF=T FulRan=T
         wScrn=  0.000000 ICntrl=       500 IOpCl=  0 I1Cent=   200000004 NGrid=           0
         NMat0=    1 NMatS0=      1 NMatT0=    0 NMatD0=    1 NMtDS0=    0 NMtDT0=    0
 Petite list used in FoFCou.
 Initial guess orbital symmetries:
       Occupied  (A') (A') (A') (A') (A') (A') (A') (A') (A") (A')
                 (A")
       Virtual   (A') (A") (A') (A') (A') (A") (A') (A') (A') (A")
                 (A') (A") (A') (A') (A') (A") (A") (A') (A') (A')
                 (A') (A") (A') (A') (A') (A') (A") (A') (A") (A')
                 (A') (A") (A") (A') (A') (A") (A') (A") (A') (A')
                 (A') (A') (A') (A') (A") (A') (A') (A") (A') (A')
                 (A") (A') (A") (A") (A') (A') (A") (A') (A') (A")
                 (A') (A') (A") (A') (A') (A') (A") (A') (A") (A')
                 (A") (A') (A") (A') (A") (A') (A') (A') (A') (A')
                 (A") (A") (A') (A') (A") (A') (A') (A") (A") (A')
                 (A') (A') (A") (A") (A') (A") (A') (A') (A') (A')
                 (A') (A") (A') (A") (A') (A') (A') (A") (A') (A")
                 (A') (A") (A') (A") (A') (A') (A') (A") (A') (A")
                 (A') (A') (A') (A") (A") (A') (A') (A") (A') (A")
                 (A') (A") (A') (A") (A') (A") (A') (A") (A') (A")
                 (A') (A') (A") (A") (A') (A') (A') (A") (A") (A')
                 (A') (A") (A') (A') (A') (A') (A") (A') (A') (A")
                 (A') (A") (A') (A") (A') (A') (A") (A") (A') (A')
                 (A") (A') (A") (A') (A') (A') (A') (A") (A") (A')
                 (A') (A') (A') (A') (A") (A') (A') (A") (A') (A")
                 (A') (A') (A") (A") (A') (A') (A') (A') (A') (A")
                 (A') (A") (A") (A') (A') (A") (A") (A') (A') (A")
                 (A') (A") (A") (A') (A') (A') (A') (A") (A') (A")
                 (A') (A') (A") (A') (A') (A") (A') (A") (A') (A")
                 (A') (A') (A") (A') (A') (A") (A') (A") (A') (A')
                 (A') (A') (A") (A') (A") (A') (A") (A') (A') (A")
                 (A') (A') (A") (A') (A') (A") (A') (A') (A') (A')
                 (A') (A') (A') (A') (A')
 The electronic state of the initial guess is 1-A'.
 Requested convergence on RMS density matrix=1.00D-08 within 128 cycles.
 Requested convergence on MAX density matrix=1.00D-06.
 Requested convergence on             energy=1.00D-06.
 No special actions if energy rises.
 SCF Done:  E(RHF) =  -187.656343092     A.U. after    9 cycles
            NFock=  9  Conv=0.68D-08     -V/T= 2.0059
 ExpMin= 3.57D-02 ExpMax= 1.53D+04 ExpMxC= 5.22D+02 IAcc=3 IRadAn=         5 AccDes= 0.00D+00
 HarFok:  IExCor=  205 AccDes= 0.00D+00 IRadAn=         5 IDoV=-2 UseB2=F ITyADJ=14
 ICtDFT= 12500011 ScaDFX=  1.000000  1.000000  1.000000  1.000000
 Range of M.O.s used for correlation:     4   276
 NBasis=   276 NAE=    11 NBE=    11 NFC=     3 NFV=     0
 NROrb=    273 NOA=     8 NOB=     8 NVA=   265 NVB=   265

 **** Warning!!: The largest alpha MO coefficient is  0.19709092D+02

 Disk-based method using ON**2 memory for  8 occupieds at a time.
 Estimated scratch disk usage=   539752376 words.
 Actual    scratch disk usage=   493604792 words.
 JobTyp=1 Pass  1:  I=   4 to  11 NPSUse=  8 ParTrn=T ParDer=T DoDerP=T.
 (rs|ai) integrals will be sorted in core.
 Spin components of T(2) and E(2):
     alpha-alpha T2 =       0.2682512247D-01 E2=     -0.8605285195D-01
     alpha-beta  T2 =       0.1344818178D+00 E2=     -0.4699996481D+00
     beta-beta   T2 =       0.2682512247D-01 E2=     -0.8605285195D-01
 ANorm=    0.1090014708D+01
 E2 =    -0.6421053520D+00 EUMP2 =    -0.18829844844396D+03
          IDoAtm=111111
          Differentiating once with respect to electric field.
                with respect to dipole field.
          Differentiating once with respect to nuclear coordinates.
          There are     1 degrees of freedom in the 1st order CPHF.  IDoFFX=0 NUNeed=     1.
 LinEq1:  Iter=  0 NonCon=     1 RMS=6.03D-03 Max=1.83D-01 NDo=     1
 AX will form     1 AO Fock derivatives at one time.
 LinEq1:  Iter=  1 NonCon=     1 RMS=1.79D-03 Max=3.06D-02 NDo=     1
 LinEq1:  Iter=  2 NonCon=     1 RMS=7.17D-04 Max=1.26D-02 NDo=     1
 LinEq1:  Iter=  3 NonCon=     1 RMS=2.70D-04 Max=3.46D-03 NDo=     1
 LinEq1:  Iter=  4 NonCon=     1 RMS=4.56D-05 Max=6.11D-04 NDo=     1
 LinEq1:  Iter=  5 NonCon=     1 RMS=5.35D-06 Max=6.00D-05 NDo=     1
 LinEq1:  Iter=  6 NonCon=     1 RMS=5.84D-07 Max=5.67D-06 NDo=     1
 LinEq1:  Iter=  7 NonCon=     1 RMS=1.12D-07 Max=2.98D-06 NDo=     1
 LinEq1:  Iter=  8 NonCon=     1 RMS=5.57D-08 Max=1.18D-06 NDo=     1
 LinEq1:  Iter=  9 NonCon=     1 RMS=1.07D-08 Max=3.04D-07 NDo=     1
 LinEq1:  Iter= 10 NonCon=     1 RMS=2.09D-09 Max=2.87D-08 NDo=     1
 LinEq1:  Iter= 11 NonCon=     1 RMS=2.18D-10 Max=2.05D-09 NDo=     1
 LinEq1:  Iter= 12 NonCon=     0 RMS=4.54D-11 Max=7.40D-10 NDo=     1
 Linear equations converged to 1.000D-10 1.000D-09 after    12 iterations.
 End of Minotr F.D. properties file   721 does not exist.
 End of Minotr F.D. properties file   722 does not exist.
 End of Minotr F.D. properties file   788 does not exist.

 **********************************************************************

            Population analysis using the SCF Density.

 **********************************************************************

 Orbital symmetries:
       Occupied  (A') (A') (A') (A') (A') (A') (A') (A') (A") (A')
                 (A")
       Virtual   (A') (A') (A") (A') (A') (A') (A") (A') (A") (A')
                 (A') (A") (A') (A') (A') (A") (A') (A") (A') (A')
                 (A') (A') (A") (A') (A') (A') (A") (A") (A') (A')
                 (A') (A') (A") (A") (A') (A') (A") (A') (A") (A')
                 (A') (A') (A') (A') (A") (A') (A') (A") (A') (A')
                 (A") (A") (A') (A") (A') (A") (A') (A') (A") (A')
                 (A') (A") (A') (A') (A") (A') (A') (A") (A') (A')
                 (A') (A') (A") (A') (A") (A') (A') (A") (A') (A")
                 (A') (A') (A") (A') (A") (A') (A") (A') (A") (A')
                 (A') (A") (A') (A') (A") (A') (A") (A') (A') (A")
                 (A') (A") (A') (A') (A') (A') (A') (A') (A") (A')
                 (A") (A") (A') (A") (A') (A') (A") (A') (A') (A")
                 (A') (A') (A") (A') (A") (A") (A') (A') (A") (A')
                 (A') (A") (A") (A') (A') (A") (A') (A') (A") (A")
                 (A') (A") (A') (A') (A") (A') (A') (A") (A') (A")
                 (A') (A") (A') (A') (A") (A') (A') (A') (A") (A')
                 (A') (A") (A") (A') (A') (A") (A') (A') (A') (A")
                 (A') (A") (A') (A') (A") (A") (A') (A') (A') (A')
                 (A') (A") (A') (A') (A") (A") (A') (A') (A') (A")
                 (A') (A") (A") (A') (A') (A') (A') (A') (A') (A")
                 (A') (A") (A") (A') (A') (A") (A") (A") (A') (A')
                 (A") (A') (A') (A") (A') (A") (A') (A') (A') (A")
                 (A') (A') (A') (A") (A") (A') (A") (A') (A') (A")
                 (A") (A') (A') (A') (A") (A') (A') (A") (A') (A')
                 (A') (A') (A") (A') (A") (A') (A") (A') (A') (A")
                 (A') (A') (A") (A') (A") (A') (A') (A') (A') (A')
                 (A') (A') (A') (A') (A')
 The electronic state is 1-A'.
 Alpha  occ. eigenvalues --  -20.67507 -20.67503 -11.51265  -1.47952  -1.42932
 Alpha  occ. eigenvalues --   -0.81092  -0.72298  -0.67758  -0.67751  -0.53996
 Alpha  occ. eigenvalues --   -0.53989
 Alpha virt. eigenvalues --    0.03634   0.05337   0.06704   0.06796   0.09135
 Alpha virt. eigenvalues --    0.09615   0.09769   0.13153   0.13515   0.13591
 Alpha virt. eigenvalues --    0.14913   0.15162   0.16475   0.18344   0.19329
 Alpha virt. eigenvalues --    0.19476   0.21002   0.21122   0.22664   0.23544
 Alpha virt. eigenvalues --    0.24569   0.25404   0.26705   0.26743   0.29832
 Alpha virt. eigenvalues --    0.31689   0.32794   0.36622   0.36947   0.39573
 Alpha virt. eigenvalues --    0.40774   0.42209   0.42490   0.42769   0.47148
 Alpha virt. eigenvalues --    0.48900   0.49526   0.50552   0.50946   0.52112
 Alpha virt. eigenvalues --    0.52803   0.59368   0.61532   0.65684   0.67971
 Alpha virt. eigenvalues --    0.68458   0.72652   0.73087   0.74522   0.76557
 Alpha virt. eigenvalues --    0.77547   0.78748   0.82071   0.82650   0.83116
 Alpha virt. eigenvalues --    0.84452   0.84925   0.86132   0.87933   0.89001
 Alpha virt. eigenvalues --    0.90162   0.90472   0.91462   0.92897   0.96098
 Alpha virt. eigenvalues --    0.96962   0.98943   1.01044   1.02163   1.04100
 Alpha virt. eigenvalues --    1.06240   1.08699   1.10085   1.10858   1.12678
 Alpha virt. eigenvalues --    1.14593   1.15928   1.22163   1.24606   1.28832
 Alpha virt. eigenvalues --    1.31560   1.33916   1.35027   1.36937   1.38586
 Alpha virt. eigenvalues --    1.42510   1.43902   1.47176   1.48618   1.48659
 Alpha virt. eigenvalues --    1.52217   1.53004   1.58350   1.59958   1.61922
 Alpha virt. eigenvalues --    1.65092   1.65821   1.74541   1.82236   1.83278
 Alpha virt. eigenvalues --    1.83865   1.86124   1.89939   1.91381   1.92888
 Alpha virt. eigenvalues --    1.97096   2.03271   2.06280   2.15458   2.19533
 Alpha virt. eigenvalues --    2.23430   2.25381   2.27552   2.29236   2.29508
 Alpha virt. eigenvalues --    2.32561   2.33548   2.36968   2.40344   2.40549
 Alpha virt. eigenvalues --    2.41989   2.46285   2.47026   2.48640   2.50373
 Alpha virt. eigenvalues --    2.52698   2.52769   2.55855   2.58063   2.61732
 Alpha virt. eigenvalues --    2.63674   2.66747   2.67585   2.68254   2.69925
 Alpha virt. eigenvalues --    2.70063   2.74561   2.76655   2.78548   2.80205
 Alpha virt. eigenvalues --    2.80551   2.84539   2.84903   2.89954   2.90069
 Alpha virt. eigenvalues --    2.93602   2.97881   2.98006   2.99326   3.02280
 Alpha virt. eigenvalues --    3.04275   3.09263   3.09663   3.12704   3.17089
 Alpha virt. eigenvalues --    3.23337   3.26909   3.33217   3.39363   3.40193
 Alpha virt. eigenvalues --    3.47461   3.49658   3.51218   3.51894   3.55853
 Alpha virt. eigenvalues --    3.70020   3.70448   3.71395   3.75998   3.84177
 Alpha virt. eigenvalues --    3.86225   3.88418   3.98615   4.00455   4.10327
 Alpha virt. eigenvalues --    4.12111   4.18546   4.20360   4.27012   4.36310
 Alpha virt. eigenvalues --    4.46956   4.47905   4.53910   4.63343   4.67055
 Alpha virt. eigenvalues --    4.78108   4.87463   4.91170   5.04610   5.33457
 Alpha virt. eigenvalues --    5.39057   5.41700   5.43417   5.43711   5.52582
 Alpha virt. eigenvalues --    5.62203   5.67324   5.76772   6.40763   6.51517
 Alpha virt. eigenvalues --    6.57028   6.64464   6.70283   6.73855   6.77060
 Alpha virt. eigenvalues --    6.86268   6.89685   6.90585   6.92526   6.93001
 Alpha virt. eigenvalues --    7.08425   7.11324   7.15094   7.17733   7.21046
 Alpha virt. eigenvalues --    7.22427   7.24940   7.29067   7.43300   7.51069
 Alpha virt. eigenvalues --    7.51230   7.55212   7.63382   7.64223   7.67573
 Alpha virt. eigenvalues --    7.72085   7.72628   7.75008   7.75990   7.81421
 Alpha virt. eigenvalues --    7.92578   7.92885   7.93885   8.03311   8.03704
 Alpha virt. eigenvalues --    8.07205   8.12214   8.44959   8.56769   8.66607
 Alpha virt. eigenvalues --    9.28313   9.67566   9.76715   9.79030   9.84431
 Alpha virt. eigenvalues --    9.86616   9.94962  10.12826  10.14357  10.26960
 Alpha virt. eigenvalues --   10.38827  10.92819  11.54403  11.82757  12.32187
 Alpha virt. eigenvalues --   12.48843  12.59513  12.71055  13.90795  14.92531
 Alpha virt. eigenvalues --   15.27591  17.50858  45.59667  60.36287  68.51208
          Condensed to atoms (all electrons):
               1          2          3          4          5          6
     1  C    4.232488   0.546592   0.563852  -0.008626  -0.000629  -0.001877
     2  O    0.546592   7.921992  -0.087552   0.001852  -0.000404   0.000006
     3  O    0.563852  -0.087552   7.867613  -0.027057  -0.003306   0.002633
     4  C   -0.008626   0.001852  -0.027057   0.010035  -0.000884  -0.003328
     5  O   -0.000629  -0.000404  -0.003306  -0.000884   0.003159  -0.000210
     6  O   -0.001877   0.000006   0.002633  -0.003328  -0.000210   0.002590
 Mulliken charges:
               1
     1  C    0.668200
     2  O   -0.382484
     3  O   -0.316183
     4  C    0.028009
     5  O    0.002273
     6  O    0.000185
 Sum of Mulliken charges =  -0.00000
 Mulliken charges with hydrogens summed into heavy atoms:
               1
     1  C    0.668200
     2  O   -0.382484
     3  O   -0.316183
     4  C    0.028009
     5  O    0.002273
     6  O    0.000185
         Mulliken charges condensed to fragments:
      1     -0.030468
      2      0.030468
 Electronic spatial extent (au):  <R**2>=            249.0545
 Charge=             -0.0000 electrons
 Dipole moment (field-independent basis, Debye):
    X=             -0.0011    Y=              0.0009    Z=              0.0000  Tot=              0.0014
 Quadrupole moment (field-independent basis, Debye-Ang):
   XX=            -15.3167   YY=            -20.5326   ZZ=            -15.3179
   XY=              0.1214   XZ=              0.0000   YZ=              0.0000
 Traceless Quadrupole moment (field-independent basis, Debye-Ang):
   XX=              1.7391   YY=             -3.4769   ZZ=              1.7378
   XY=              0.1214   XZ=              0.0000   YZ=              0.0000
 Octapole moment (field-independent basis, Debye-Ang**2):
  XXX=             48.6938  YYY=             39.5153  ZZZ=              0.0000  XYY=             21.6103
  XXY=              9.5647  XXZ=              0.0000  XZZ=             16.2311  YZZ=              9.8214
  YYZ=              0.0000  XYZ=              0.0000
 Hexadecapole moment (field-independent basis, Debye-Ang**3):
 XXXX=           -115.8157 YYYY=           -169.4875 ZZZZ=            -12.5222 XXXY=            -29.5854
 XXXZ=              0.0000 YYYX=            -40.5230 YYYZ=              0.0000 ZZZX=              0.0000
 ZZZY=              0.0000 XXYY=            -51.1816 XXZZ=            -21.3868 YYZZ=            -28.4298
 XXYZ=              0.0000 YYXZ=              0.0000 ZZXY=             -9.9978
 N-N= 5.382603544005D+01 E-N=-5.500409797103D+02  KE= 1.865570729731D+02
 Symmetry A'   KE= 1.782640631957D+02
 Symmetry A"   KE= 8.293009777415D+00
 Calling FoFJK, ICntrl=  10002127 FMM=F ISym2X=1 I1Cent= 0 IOpClX= 0 NMat=1 NMatS=1 NMatT=0.
 ***** Axes restored to original set *****
 Cartesian Forces:  Max     0.132143624 RMS     0.044007696
 CPIOFr:  IOpCl= 0 IRwI=-1 IRwCP=  731 ICalc=  1 LCPTot=      115733 Len1MO=      309910 IndFrg=      735553
 Counterpoise: doing calculation for fragment   2 using the basis set of the full-system, NewBq=T
 Basis read from rwf:  (5D, 7F)
 There are   222 symmetry adapted cartesian basis functions of A'  symmetry.
 There are   108 symmetry adapted cartesian basis functions of A"  symmetry.
 There are   180 symmetry adapted basis functions of A'  symmetry.
 There are    96 symmetry adapted basis functions of A"  symmetry.
   276 basis functions,   432 primitive gaussians,   330 cartesian basis functions
    11 alpha electrons       11 beta electrons
       nuclear repulsion energy        53.8260354975 Hartrees.
 NAtoms=    6 NActive=    6 NUniq=    6 SFac= 1.00D+00 NAtFMM=   60 NAOKFM=F Big=F
 Integral buffers will be    131072 words long.
 Raffenetti 1 integral format.
 Two-electron integral symmetry is turned on.
 One-electron integrals computed using PRISM.
 NBasis=   276 RedAO= T EigKep=  1.13D-04  NBF=   180    96
 NBsUse=   276 1.00D-06 EigRej= -1.00D+00 NBFU=   180    96
 ExpMin= 3.57D-02 ExpMax= 1.53D+04 ExpMxC= 5.22D+02 IAcc=3 IRadAn=         5 AccDes= 0.00D+00
 Harris functional with IExCor=  205 and IRadAn=       5 diagonalized for initial guess.
 HarFok:  IExCor=  205 AccDes= 0.00D+00 IRadAn=         5 IDoV= 1 UseB2=F ITyADJ=14
 ICtDFT=  3500011 ScaDFX=  1.000000  1.000000  1.000000  1.000000
 FoFCou: FMM=F IPFlag=           0 FMFlag=      100000 FMFlg1=           0
         NFxFlg=           0 DoJE=T BraDBF=F KetDBF=T FulRan=T
         wScrn=  0.000000 ICntrl=       500 IOpCl=  0 I1Cent=   200000004 NGrid=           0
         NMat0=    1 NMatS0=      1 NMatT0=    0 NMatD0=    1 NMtDS0=    0 NMtDT0=    0
 Petite list used in FoFCou.
 Initial guess orbital symmetries:
       Occupied  (A') (A') (A') (A') (A') (A') (A') (A') (A") (A')
                 (A")
       Virtual   (A') (A") (A') (A') (A') (A") (A') (A') (A') (A")
                 (A') (A") (A') (A') (A') (A") (A") (A') (A') (A')
                 (A') (A") (A') (A') (A') (A') (A") (A') (A") (A')
                 (A') (A") (A") (A') (A') (A") (A') (A") (A') (A')
                 (A') (A') (A') (A') (A") (A') (A') (A") (A') (A')
                 (A") (A') (A") (A') (A") (A') (A") (A') (A') (A")
                 (A') (A') (A") (A') (A') (A') (A") (A') (A') (A")
                 (A") (A') (A") (A') (A") (A') (A') (A') (A') (A')
                 (A") (A") (A') (A') (A") (A') (A') (A") (A") (A')
                 (A') (A') (A") (A') (A") (A") (A') (A') (A') (A')
                 (A') (A") (A') (A") (A') (A') (A') (A") (A') (A")
                 (A') (A") (A") (A') (A') (A') (A") (A') (A') (A")
                 (A') (A') (A') (A") (A") (A') (A') (A') (A") (A")
                 (A') (A") (A") (A') (A') (A") (A') (A") (A') (A')
                 (A") (A') (A") (A") (A') (A') (A') (A") (A") (A')
                 (A') (A") (A') (A') (A') (A') (A") (A') (A') (A")
                 (A') (A") (A') (A") (A') (A') (A") (A") (A') (A')
                 (A") (A') (A") (A') (A') (A') (A') (A") (A") (A')
                 (A') (A') (A') (A') (A") (A') (A') (A") (A') (A")
                 (A') (A') (A") (A") (A') (A') (A') (A') (A') (A")
                 (A') (A") (A") (A') (A') (A") (A") (A') (A') (A")
                 (A') (A") (A") (A') (A') (A') (A') (A") (A') (A")
                 (A') (A') (A") (A') (A') (A") (A') (A") (A') (A")
                 (A') (A') (A") (A') (A') (A") (A') (A") (A') (A')
                 (A') (A') (A") (A') (A") (A') (A") (A') (A') (A")
                 (A') (A') (A") (A') (A') (A") (A') (A') (A') (A')
                 (A') (A') (A') (A') (A')
 The electronic state of the initial guess is 1-A'.
 Requested convergence on RMS density matrix=1.00D-08 within 128 cycles.
 Requested convergence on MAX density matrix=1.00D-06.
 Requested convergence on             energy=1.00D-06.
 No special actions if energy rises.
 SCF Done:  E(RHF) =  -187.656347464     A.U. after    9 cycles
            NFock=  9  Conv=0.63D-08     -V/T= 2.0059
 ExpMin= 3.57D-02 ExpMax= 1.53D+04 ExpMxC= 5.22D+02 IAcc=3 IRadAn=         5 AccDes= 0.00D+00
 HarFok:  IExCor=  205 AccDes= 0.00D+00 IRadAn=         5 IDoV=-2 UseB2=F ITyADJ=14
 ICtDFT= 12500011 ScaDFX=  1.000000  1.000000  1.000000  1.000000
 Range of M.O.s used for correlation:     4   276
 NBasis=   276 NAE=    11 NBE=    11 NFC=     3 NFV=     0
 NROrb=    273 NOA=     8 NOB=     8 NVA=   265 NVB=   265

 **** Warning!!: The largest alpha MO coefficient is  0.21814885D+02

 Disk-based method using ON**2 memory for  8 occupieds at a time.
 Estimated scratch disk usage=   539752376 words.
 Actual    scratch disk usage=   493604792 words.
 JobTyp=1 Pass  1:  I=   4 to  11 NPSUse=  8 ParTrn=T ParDer=T DoDerP=T.
 (rs|ai) integrals will be sorted in core.
 Spin components of T(2) and E(2):
     alpha-alpha T2 =       0.2682507219D-01 E2=     -0.8605253942D-01
     alpha-beta  T2 =       0.1344815053D+00 E2=     -0.4699992005D+00
     beta-beta   T2 =       0.2682507219D-01 E2=     -0.8605253942D-01
 ANorm=    0.1090014518D+01
 E2 =    -0.6421042793D+00 EUMP2 =    -0.18829845174309D+03
          IDoAtm=111111
          Differentiating once with respect to electric field.
                with respect to dipole field.
          Differentiating once with respect to nuclear coordinates.
          There are     1 degrees of freedom in the 1st order CPHF.  IDoFFX=0 NUNeed=     1.
 LinEq1:  Iter=  0 NonCon=     1 RMS=6.03D-03 Max=1.82D-01 NDo=     1
 AX will form     1 AO Fock derivatives at one time.
 LinEq1:  Iter=  1 NonCon=     1 RMS=1.79D-03 Max=2.86D-02 NDo=     1
 LinEq1:  Iter=  2 NonCon=     1 RMS=7.17D-04 Max=1.26D-02 NDo=     1
 LinEq1:  Iter=  3 NonCon=     1 RMS=2.70D-04 Max=3.44D-03 NDo=     1
 LinEq1:  Iter=  4 NonCon=     1 RMS=4.56D-05 Max=5.75D-04 NDo=     1
 LinEq1:  Iter=  5 NonCon=     1 RMS=5.35D-06 Max=6.07D-05 NDo=     1
 LinEq1:  Iter=  6 NonCon=     1 RMS=5.85D-07 Max=5.64D-06 NDo=     1
 LinEq1:  Iter=  7 NonCon=     1 RMS=1.15D-07 Max=3.09D-06 NDo=     1
 LinEq1:  Iter=  8 NonCon=     1 RMS=5.67D-08 Max=1.23D-06 NDo=     1
 LinEq1:  Iter=  9 NonCon=     1 RMS=1.14D-08 Max=3.26D-07 NDo=     1
 LinEq1:  Iter= 10 NonCon=     1 RMS=2.12D-09 Max=2.71D-08 NDo=     1
 LinEq1:  Iter= 11 NonCon=     1 RMS=2.19D-10 Max=2.04D-09 NDo=     1
 LinEq1:  Iter= 12 NonCon=     0 RMS=4.71D-11 Max=8.07D-10 NDo=     1
 Linear equations converged to 1.000D-10 1.000D-09 after    12 iterations.
 End of Minotr F.D. properties file   721 does not exist.
 End of Minotr F.D. properties file   722 does not exist.
 End of Minotr F.D. properties file   788 does not exist.

 **********************************************************************

            Population analysis using the SCF Density.

 **********************************************************************

 Orbital symmetries:
       Occupied  (A') (A') (A') (A') (A') (A') (A') (A') (A") (A')
                 (A")
       Virtual   (A') (A') (A") (A') (A') (A') (A") (A') (A") (A')
                 (A') (A") (A') (A') (A') (A") (A') (A") (A') (A')
                 (A') (A') (A") (A') (A') (A') (A") (A") (A') (A')
                 (A') (A') (A") (A") (A') (A') (A") (A') (A") (A')
                 (A') (A') (A') (A') (A") (A') (A') (A") (A') (A')
                 (A") (A") (A') (A") (A') (A") (A') (A') (A") (A')
                 (A') (A") (A') (A') (A") (A') (A') (A") (A') (A')
                 (A') (A') (A") (A') (A") (A') (A') (A") (A') (A")
                 (A') (A') (A") (A') (A") (A') (A") (A') (A") (A')
                 (A') (A") (A') (A') (A") (A') (A") (A') (A') (A")
                 (A') (A") (A') (A') (A') (A') (A') (A') (A") (A')
                 (A") (A") (A') (A") (A') (A') (A") (A') (A") (A')
                 (A') (A') (A") (A') (A") (A") (A') (A') (A") (A')
                 (A') (A") (A") (A') (A') (A") (A') (A') (A") (A")
                 (A') (A") (A') (A') (A") (A') (A') (A") (A') (A")
                 (A') (A") (A') (A') (A") (A') (A') (A') (A") (A')
                 (A') (A") (A") (A') (A') (A") (A') (A') (A') (A")
                 (A') (A") (A') (A') (A") (A") (A') (A') (A') (A')
                 (A') (A") (A') (A') (A") (A") (A') (A') (A') (A")
                 (A') (A") (A") (A') (A') (A') (A') (A') (A') (A")
                 (A') (A") (A") (A') (A') (A") (A") (A") (A') (A')
                 (A") (A') (A') (A") (A') (A") (A') (A') (A') (A")
                 (A') (A') (A") (A') (A") (A') (A") (A') (A') (A")
                 (A') (A") (A') (A') (A") (A') (A') (A") (A') (A')
                 (A') (A') (A") (A') (A") (A') (A") (A') (A') (A")
                 (A') (A') (A") (A') (A") (A') (A') (A') (A') (A')
                 (A') (A') (A') (A') (A')
 The electronic state is 1-A'.
 Alpha  occ. eigenvalues --  -20.67507 -20.67503 -11.51265  -1.47952  -1.42932
 Alpha  occ. eigenvalues --   -0.81092  -0.72298  -0.67758  -0.67751  -0.53996
 Alpha  occ. eigenvalues --   -0.53989
 Alpha virt. eigenvalues --    0.03639   0.05345   0.06707   0.06784   0.09126
 Alpha virt. eigenvalues --    0.09622   0.09776   0.13164   0.13504   0.13591
 Alpha virt. eigenvalues --    0.14921   0.15151   0.16468   0.18329   0.19348
 Alpha virt. eigenvalues --    0.19510   0.21003   0.21119   0.22634   0.23536
 Alpha virt. eigenvalues --    0.24636   0.25339   0.26729   0.26767   0.29867
 Alpha virt. eigenvalues --    0.31689   0.32774   0.36538   0.37049   0.39499
 Alpha virt. eigenvalues --    0.40716   0.42167   0.42507   0.42837   0.47251
 Alpha virt. eigenvalues --    0.48650   0.49442   0.50505   0.51081   0.52172
 Alpha virt. eigenvalues --    0.53021   0.59618   0.61431   0.65774   0.68126
 Alpha virt. eigenvalues --    0.68411   0.72654   0.73014   0.74323   0.76842
 Alpha virt. eigenvalues --    0.77580   0.78835   0.82015   0.82721   0.82909
 Alpha virt. eigenvalues --    0.84256   0.84962   0.85902   0.87749   0.88847
 Alpha virt. eigenvalues --    0.89965   0.90532   0.91523   0.93511   0.96177
 Alpha virt. eigenvalues --    0.96825   0.98945   1.01030   1.02375   1.04084
 Alpha virt. eigenvalues --    1.06196   1.08689   1.10094   1.10923   1.12587
 Alpha virt. eigenvalues --    1.14176   1.15994   1.22367   1.24440   1.28506
 Alpha virt. eigenvalues --    1.31388   1.34579   1.35311   1.36657   1.38436
 Alpha virt. eigenvalues --    1.42499   1.43846   1.46897   1.48735   1.50049
 Alpha virt. eigenvalues --    1.52526   1.53151   1.57865   1.59814   1.61996
 Alpha virt. eigenvalues --    1.65293   1.66003   1.73857   1.81887   1.83406
 Alpha virt. eigenvalues --    1.83794   1.85972   1.90033   1.91209   1.93018
 Alpha virt. eigenvalues --    1.96910   2.03232   2.06556   2.16010   2.19924
 Alpha virt. eigenvalues --    2.23106   2.24658   2.27634   2.29532   2.29606
 Alpha virt. eigenvalues --    2.32210   2.33525   2.36779   2.40659   2.40727
 Alpha virt. eigenvalues --    2.42308   2.45693   2.47098   2.48543   2.51271
 Alpha virt. eigenvalues --    2.52992   2.53215   2.56123   2.58323   2.61833
 Alpha virt. eigenvalues --    2.63446   2.66027   2.66993   2.68562   2.69986
 Alpha virt. eigenvalues --    2.70432   2.75493   2.76658   2.78614   2.80409
 Alpha virt. eigenvalues --    2.81009   2.84843   2.85878   2.89804   2.90004
 Alpha virt. eigenvalues --    2.93421   2.98230   2.98281   2.99907   3.02425
 Alpha virt. eigenvalues --    3.03776   3.09101   3.09805   3.12897   3.16997
 Alpha virt. eigenvalues --    3.22897   3.27873   3.32156   3.39298   3.39752
 Alpha virt. eigenvalues --    3.47437   3.49427   3.50135   3.51890   3.55757
 Alpha virt. eigenvalues --    3.70009   3.70118   3.70614   3.75318   3.84609
 Alpha virt. eigenvalues --    3.86572   3.88600   3.97889   3.99655   4.10611
 Alpha virt. eigenvalues --    4.12379   4.18379   4.20274   4.28239   4.35654
 Alpha virt. eigenvalues --    4.46695   4.47573   4.53973   4.63794   4.67179
 Alpha virt. eigenvalues --    4.78646   4.87007   4.91263   5.04545   5.33451
 Alpha virt. eigenvalues --    5.39494   5.41711   5.43515   5.43651   5.52869
 Alpha virt. eigenvalues --    5.63267   5.67032   5.76555   6.40871   6.50953
 Alpha virt. eigenvalues --    6.56100   6.65252   6.70655   6.74474   6.77088
 Alpha virt. eigenvalues --    6.86391   6.89763   6.90731   6.92597   6.93625
 Alpha virt. eigenvalues --    7.08418   7.10304   7.16196   7.17715   7.20736
 Alpha virt. eigenvalues --    7.22575   7.25414   7.29240   7.44140   7.51974
 Alpha virt. eigenvalues --    7.52647   7.55364   7.63145   7.64963   7.67494
 Alpha virt. eigenvalues --    7.72325   7.72682   7.73767   7.75968   7.81497
 Alpha virt. eigenvalues --    7.92426   7.92539   7.95757   8.02276   8.03715
 Alpha virt. eigenvalues --    8.08732   8.11379   8.44941   8.56812   8.67098
 Alpha virt. eigenvalues --    9.27122   9.67439   9.76734   9.78911   9.84556
 Alpha virt. eigenvalues --    9.86995   9.94916  10.10477  10.14017  10.27008
 Alpha virt. eigenvalues --   10.38813  10.92977  11.54479  11.84180  12.32241
 Alpha virt. eigenvalues --   12.49693  12.59460  12.71831  13.90475  14.93531
 Alpha virt. eigenvalues --   15.27822  17.53276  45.56842  60.34842  68.45658
          Condensed to atoms (all electrons):
               1          2          3          4          5          6
     1  C    0.009973  -0.003168  -0.000734  -0.009098  -0.028017   0.001629
     2  O   -0.003168   0.002504  -0.000195  -0.001981   0.002317   0.000057
     3  O   -0.000734  -0.000195   0.003084  -0.000262  -0.003343   0.000386
     4  C   -0.009098  -0.001981  -0.000262   4.240982   0.563441   0.546076
     5  O   -0.028017   0.002317  -0.003343   0.563441   7.864278  -0.088019
     6  O    0.001629   0.000057   0.000386   0.546076  -0.088019   7.920997
 Mulliken charges:
               1
     1  C    0.029414
     2  O    0.000466
     3  O    0.001063
     4  C    0.660841
     5  O   -0.310658
     6  O   -0.381127
 Sum of Mulliken charges =  -0.00000
 Mulliken charges with hydrogens summed into heavy atoms:
               1
     1  C    0.029414
     2  O    0.000466
     3  O    0.001063
     4  C    0.660841
     5  O   -0.310658
     6  O   -0.381127
         Mulliken charges condensed to fragments:
      1      0.030944
      2     -0.030944
 Electronic spatial extent (au):  <R**2>=            249.0547
 Charge=             -0.0000 electrons
 Dipole moment (field-independent basis, Debye):
    X=              0.0010    Y=             -0.0011    Z=              0.0000  Tot=              0.0015
 Quadrupole moment (field-independent basis, Debye-Ang):
   XX=            -15.3140   YY=            -20.5355   ZZ=            -15.3178
   XY=              0.0028   XZ=              0.0000   YZ=              0.0000
 Traceless Quadrupole moment (field-independent basis, Debye-Ang):
   XX=              1.7418   YY=             -3.4797   ZZ=              1.7380
   XY=              0.0028   XZ=              0.0000   YZ=              0.0000
 Octapole moment (field-independent basis, Debye-Ang**2):
  XXX=            -48.6851  YYY=            -39.5227  ZZZ=              0.0000  XYY=            -21.7660
  XXY=             -9.8148  XXZ=              0.0000  XZZ=            -16.2312  YZZ=             -9.8212
  YYZ=              0.0000  XYZ=              0.0000
 Hexadecapole moment (field-independent basis, Debye-Ang**3):
 XXXX=           -115.7409 YYYY=           -169.5543 ZZZZ=            -12.5227 XXXY=            -31.2035
 XXXZ=              0.0000 YYYX=            -41.8675 YYYZ=              0.0000 ZZZX=              0.0000
 ZZZY=              0.0000 XXYY=            -51.5080 XXZZ=            -21.3777 YYZZ=            -28.4391
 XXYZ=              0.0000 YYXZ=              0.0000 ZZXY=            -10.4057
 N-N= 5.382603549750D+01 E-N=-5.500409791186D+02  KE= 1.865570434496D+02
 Symmetry A'   KE= 1.782640400326D+02
 Symmetry A"   KE= 8.293003416989D+00
 Calling FoFJK, ICntrl=  10002127 FMM=F ISym2X=1 I1Cent= 0 IOpClX= 0 NMat=1 NMatS=1 NMatT=0.
 ***** Axes restored to original set *****
 Cartesian Forces:  Max     0.132112990 RMS     0.044004696
 CPIOFr:  IOpCl= 0 IRwI=-1 IRwCP=  731 ICalc=  2 LCPTot=      115733 Len1MO=      309910 IndFrg=     1045463
 Counterpoise: doing calculation for fragment   1 using the basis set of the fragment.
 Basis read from rwf:  (5D, 7F)
 There are   111 symmetry adapted cartesian basis functions of A'  symmetry.
 There are    54 symmetry adapted cartesian basis functions of A"  symmetry.
 There are    90 symmetry adapted basis functions of A'  symmetry.
 There are    48 symmetry adapted basis functions of A"  symmetry.
   138 basis functions,   216 primitive gaussians,   165 cartesian basis functions
    11 alpha electrons       11 beta electrons
       nuclear repulsion energy        53.8260354401 Hartrees.
 NAtoms=    6 NActive=    3 NUniq=    3 SFac= 1.00D+00 NAtFMM=   60 NAOKFM=F Big=F
 Integral buffers will be    131072 words long.
 Raffenetti 1 integral format.
 Two-electron integral symmetry is turned on.
 One-electron integrals computed using PRISM.
 NBasis=   138 RedAO= T EigKep=  4.29D-04  NBF=    90    48
 NBsUse=   138 1.00D-06 EigRej= -1.00D+00 NBFU=    90    48
 ExpMin= 3.57D-02 ExpMax= 1.53D+04 ExpMxC= 5.22D+02 IAcc=3 IRadAn=         5 AccDes= 0.00D+00
 Harris functional with IExCor=  205 and IRadAn=       5 diagonalized for initial guess.
 HarFok:  IExCor=  205 AccDes= 0.00D+00 IRadAn=         5 IDoV= 1 UseB2=F ITyADJ=14
 ICtDFT=  3500011 ScaDFX=  1.000000  1.000000  1.000000  1.000000
 FoFCou: FMM=F IPFlag=           0 FMFlag=      100000 FMFlg1=           0
         NFxFlg=           0 DoJE=T BraDBF=F KetDBF=T FulRan=T
         wScrn=  0.000000 ICntrl=       500 IOpCl=  0 I1Cent=   200000004 NGrid=           0
         NMat0=    1 NMatS0=      1 NMatT0=    0 NMatD0=    1 NMtDS0=    0 NMtDT0=    0
 Petite list used in FoFCou.
 Initial guess orbital symmetries:
       Occupied  (A') (A') (A') (A') (A') (A') (A') (A") (A') (A")
                 (A')
       Virtual   (A") (A') (A') (A') (A') (A") (A') (A') (A") (A')
                 (A') (A') (A") (A") (A') (A') (A') (A") (A') (A")
                 (A') (A') (A') (A') (A") (A') (A') (A') (A") (A')
                 (A") (A") (A') (A') (A') (A') (A") (A') (A') (A")
                 (A') (A") (A") (A') (A') (A") (A') (A') (A") (A')
                 (A') (A") (A') (A') (A") (A') (A") (A') (A") (A")
                 (A') (A') (A") (A') (A') (A") (A') (A') (A") (A')
                 (A') (A') (A") (A") (A') (A') (A') (A") (A') (A")
                 (A') (A") (A') (A") (A') (A') (A') (A") (A") (A')
                 (A') (A") (A') (A") (A') (A') (A') (A') (A") (A')
                 (A") (A') (A") (A') (A") (A') (A") (A') (A") (A')
                 (A') (A") (A') (A") (A') (A') (A") (A') (A') (A")
                 (A') (A') (A") (A') (A') (A') (A')
 The electronic state of the initial guess is 1-A'.
 Keep R1 ints in memory in symmetry-blocked form, NReq=69248520.
 Requested convergence on RMS density matrix=1.00D-08 within 128 cycles.
 Requested convergence on MAX density matrix=1.00D-06.
 Requested convergence on             energy=1.00D-06.
 No special actions if energy rises.
 SCF Done:  E(RHF) =  -187.656128471     A.U. after   10 cycles
            NFock= 10  Conv=0.15D-08     -V/T= 2.0059
 ExpMin= 3.57D-02 ExpMax= 1.53D+04 ExpMxC= 5.22D+02 IAcc=3 IRadAn=         5 AccDes= 0.00D+00
 HarFok:  IExCor=  205 AccDes= 0.00D+00 IRadAn=         5 IDoV=-2 UseB2=F ITyADJ=14
 ICtDFT= 12500011 ScaDFX=  1.000000  1.000000  1.000000  1.000000
 Range of M.O.s used for correlation:     4   138
 NBasis=   138 NAE=    11 NBE=    11 NFC=     3 NFV=     0
 NROrb=    135 NOA=     8 NOB=     8 NVA=   127 NVB=   127

 **** Warning!!: The largest alpha MO coefficient is  0.18841157D+02

 Fully direct method using O(ONN) memory.
 JobTyp=1 Pass  1:  I=   4 to   7 NPSUse=  8 ParTrn=T ParDer=T DoDerP=T.
 JobTyp=1 Pass  2:  I=   8 to  11 NPSUse=  8 ParTrn=T ParDer=T DoDerP=T.
 Spin components of T(2) and E(2):
     alpha-alpha T2 =       0.2682174098D-01 E2=     -0.8600892058D-01
     alpha-beta  T2 =       0.1344028423D+00 E2=     -0.4692005284D+00
     beta-beta   T2 =       0.2682174098D-01 E2=     -0.8600892058D-01
 ANorm=    0.1089975378D+01
 E2 =    -0.6412183695D+00 EUMP2 =    -0.18829734684067D+03
          IDoAtm=111000
          Differentiating once with respect to electric field.
                with respect to dipole field.
          Differentiating once with respect to nuclear coordinates.
 Keep R1 ints in memory in symmetry-blocked form, NReq=69249645.
          There are     1 degrees of freedom in the 1st order CPHF.  IDoFFX=0 NUNeed=     1.
 LinEq1:  Iter=  0 NonCon=     1 RMS=8.70D-03 Max=1.94D-01 NDo=     1
 AX will form     1 AO Fock derivatives at one time.
 LinEq1:  Iter=  1 NonCon=     1 RMS=2.58D-03 Max=3.90D-02 NDo=     1
 LinEq1:  Iter=  2 NonCon=     1 RMS=1.03D-03 Max=1.35D-02 NDo=     1
 LinEq1:  Iter=  3 NonCon=     1 RMS=3.90D-04 Max=5.99D-03 NDo=     1
 LinEq1:  Iter=  4 NonCon=     1 RMS=6.59D-05 Max=6.82D-04 NDo=     1
 LinEq1:  Iter=  5 NonCon=     1 RMS=7.73D-06 Max=7.50D-05 NDo=     1
 LinEq1:  Iter=  6 NonCon=     1 RMS=8.31D-07 Max=6.45D-06 NDo=     1
 LinEq1:  Iter=  7 NonCon=     1 RMS=7.16D-08 Max=7.17D-07 NDo=     1
 LinEq1:  Iter=  8 NonCon=     1 RMS=5.68D-09 Max=6.89D-08 NDo=     1
 LinEq1:  Iter=  9 NonCon=     1 RMS=4.28D-10 Max=3.79D-09 NDo=     1
 LinEq1:  Iter= 10 NonCon=     0 RMS=2.64D-11 Max=3.48D-10 NDo=     1
 Linear equations converged to 1.000D-10 1.000D-09 after    10 iterations.
 End of Minotr F.D. properties file   721 does not exist.
 End of Minotr F.D. properties file   722 does not exist.
 End of Minotr F.D. properties file   788 does not exist.

 **********************************************************************

            Population analysis using the SCF Density.

 **********************************************************************

 Orbital symmetries:
       Occupied  (A') (A') (A') (A') (A') (A') (A') (A") (A') (A")
                 (A')
       Virtual   (A') (A") (A') (A') (A') (A") (A') (A') (A") (A')
                 (A') (A") (A') (A') (A") (A') (A') (A') (A") (A')
                 (A") (A') (A') (A") (A') (A') (A') (A") (A") (A')
                 (A') (A") (A') (A') (A') (A") (A') (A') (A") (A")
                 (A') (A') (A') (A") (A") (A') (A') (A') (A") (A')
                 (A") (A') (A') (A') (A") (A') (A") (A") (A') (A')
                 (A") (A') (A") (A') (A') (A') (A") (A') (A') (A")
                 (A') (A") (A') (A") (A') (A') (A') (A") (A") (A')
                 (A') (A") (A') (A") (A') (A') (A') (A") (A') (A")
                 (A") (A') (A') (A") (A') (A') (A') (A") (A') (A')
                 (A') (A") (A') (A") (A') (A") (A") (A') (A') (A")
                 (A') (A") (A') (A") (A') (A') (A") (A') (A') (A')
                 (A") (A") (A') (A') (A') (A') (A')
 The electronic state is 1-A'.
 Alpha  occ. eigenvalues --  -20.67520 -20.67517 -11.51275  -1.47960  -1.42941
 Alpha  occ. eigenvalues --   -0.81099  -0.72305  -0.67761  -0.67761  -0.53998
 Alpha  occ. eigenvalues --   -0.53998
 Alpha virt. eigenvalues --    0.04406   0.07394   0.07394   0.07923   0.13710
 Alpha virt. eigenvalues --    0.13710   0.15988   0.16512   0.16512   0.18962
 Alpha virt. eigenvalues --    0.22183   0.24617   0.24617   0.27828   0.27828
 Alpha virt. eigenvalues --    0.29902   0.37765   0.44513   0.44513   0.48536
 Alpha virt. eigenvalues --    0.48536   0.49502   0.59847   0.65552   0.65552
 Alpha virt. eigenvalues --    0.68540   0.76518   0.76518   0.78405   0.78405
 Alpha virt. eigenvalues --    0.83166   0.89051   0.89051   0.92352   1.03511
 Alpha virt. eigenvalues --    1.03780   1.03780   1.05283   1.05283   1.08211
 Alpha virt. eigenvalues --    1.08211   1.11909   1.22248   1.22248   1.33790
 Alpha virt. eigenvalues --    1.33790   1.36718   1.44903   1.44903   1.49435
 Alpha virt. eigenvalues --    1.57386   1.57386   1.85347   2.02858   2.02858
 Alpha virt. eigenvalues --    2.17006   2.17006   2.23423   2.23423   2.23941
 Alpha virt. eigenvalues --    2.23941   2.28543   2.30589   2.30589   2.34286
 Alpha virt. eigenvalues --    2.40290   2.40290   2.43310   2.53157   2.53157
 Alpha virt. eigenvalues --    2.68867   2.77604   2.77604   2.78486   2.78486
 Alpha virt. eigenvalues --    2.94252   2.97813   2.97813   3.05847   3.05847
 Alpha virt. eigenvalues --    3.29892   3.29892   3.33631   3.33631   3.43777
 Alpha virt. eigenvalues --    3.65571   3.80234   3.80234   3.85582   3.85582
 Alpha virt. eigenvalues --    4.08346   4.08346   4.41792   4.65810   4.65810
 Alpha virt. eigenvalues --    4.87894   5.29891   5.42040   5.42040   6.33850
 Alpha virt. eigenvalues --    6.43687   6.43687   6.52717   6.52717   6.63575
 Alpha virt. eigenvalues --    6.63575   6.83657   6.83657   6.89702   6.89702
 Alpha virt. eigenvalues --    7.04631   7.04631   7.12860   7.13595   7.13595
 Alpha virt. eigenvalues --    7.21334   7.21334   7.22090   7.32527   7.66873
 Alpha virt. eigenvalues --    7.66873   7.80489   7.80489   7.80975  11.95268
 Alpha virt. eigenvalues --   14.21053  17.21176
          Condensed to atoms (all electrons):
               1          2          3
     1  C    4.300149   0.553102   0.553102
     2  O    0.553102   7.826236  -0.082514
     3  O    0.553102  -0.082514   7.826236
 Mulliken charges:
               1
     1  C    0.593648
     2  O   -0.296824
     3  O   -0.296824
     4  C    0.000000
     5  O    0.000000
     6  O    0.000000
 Sum of Mulliken charges =  -0.00000
 Mulliken charges with hydrogens summed into heavy atoms:
               1
     1  C    0.593648
     2  O   -0.296824
     3  O   -0.296824
     4  C    0.000000
     5  O    0.000000
     6  O    0.000000
         Mulliken charges condensed to fragments:
      1     -0.000000
      2      0.000000
 Electronic spatial extent (au):  <R**2>=            249.0643
 Charge=             -0.0000 electrons
 Dipole moment (field-independent basis, Debye):
    X=              0.0000    Y=              0.0000    Z=              0.0000  Tot=              0.0000
 Quadrupole moment (field-independent basis, Debye-Ang):
   XX=            -15.3206   YY=            -20.5417   ZZ=            -15.3179
   XY=              0.1187   XZ=              0.0000   YZ=              0.0000
 Traceless Quadrupole moment (field-independent basis, Debye-Ang):
   XX=              1.7395   YY=             -3.4816   ZZ=              1.7422
   XY=              0.1187   XZ=              0.0000   YZ=              0.0000
 Octapole moment (field-independent basis, Debye-Ang**2):
  XXX=             48.7072  YYY=             39.5162  ZZZ=              0.0000  XYY=             21.6165
  XXY=              9.5726  XXZ=              0.0000  XZZ=             16.2329  YZZ=              9.8224
  YYZ=              0.0000  XYZ=              0.0000
 Hexadecapole moment (field-independent basis, Debye-Ang**3):
 XXXX=           -115.8136 YYYY=           -169.5828 ZZZZ=            -12.5252 XXXY=            -29.6087
 XXXZ=              0.0000 YYYX=            -40.5380 YYYZ=              0.0000 ZZZX=              0.0000
 ZZZY=              0.0000 XXYY=            -51.1955 XXZZ=            -21.3868 YYZZ=            -28.4395
 XXYZ=              0.0000 YYXZ=              0.0000 ZZXY=            -10.0010
 N-N= 5.382603544005D+01 E-N=-5.500381016647D+02  KE= 1.865564898703D+02
 Symmetry A'   KE= 1.782635122521D+02
 Symmetry A"   KE= 8.292977618145D+00
 Calling FoFJK, ICntrl=  10002127 FMM=F ISym2X=1 I1Cent= 0 IOpClX= 0 NMat=1 NMatS=1 NMatT=0.
 ***** Axes restored to original set *****
 Cartesian Forces:  Max     0.132115734 RMS     0.044038578
 CPIOFr:  IOpCl= 0 IRwI=-1 IRwCP=  731 ICalc=  3 LCPTot=      115733 Len1MO=      309910 IndFrg=     1355373
 Counterpoise: doing calculation for fragment   2 using the basis set of the fragment.
 Basis read from rwf:  (5D, 7F)
 There are   111 symmetry adapted cartesian basis functions of A'  symmetry.
 There are    54 symmetry adapted cartesian basis functions of A"  symmetry.
 There are    90 symmetry adapted basis functions of A'  symmetry.
 There are    48 symmetry adapted basis functions of A"  symmetry.
   138 basis functions,   216 primitive gaussians,   165 cartesian basis functions
    11 alpha electrons       11 beta electrons
       nuclear repulsion energy        53.8260354975 Hartrees.
 NAtoms=    6 NActive=    3 NUniq=    3 SFac= 1.00D+00 NAtFMM=   60 NAOKFM=F Big=F
 Integral buffers will be    131072 words long.
 Raffenetti 1 integral format.
 Two-electron integral symmetry is turned on.
 One-electron integrals computed using PRISM.
 NBasis=   138 RedAO= T EigKep=  4.29D-04  NBF=    90    48
 NBsUse=   138 1.00D-06 EigRej= -1.00D+00 NBFU=    90    48
 ExpMin= 3.57D-02 ExpMax= 1.53D+04 ExpMxC= 5.22D+02 IAcc=3 IRadAn=         5 AccDes= 0.00D+00
 Harris functional with IExCor=  205 and IRadAn=       5 diagonalized for initial guess.
 HarFok:  IExCor=  205 AccDes= 0.00D+00 IRadAn=         5 IDoV= 1 UseB2=F ITyADJ=14
 ICtDFT=  3500011 ScaDFX=  1.000000  1.000000  1.000000  1.000000
 FoFCou: FMM=F IPFlag=           0 FMFlag=      100000 FMFlg1=           0
         NFxFlg=           0 DoJE=T BraDBF=F KetDBF=T FulRan=T
         wScrn=  0.000000 ICntrl=       500 IOpCl=  0 I1Cent=   200000004 NGrid=           0
         NMat0=    1 NMatS0=      1 NMatT0=    0 NMatD0=    1 NMtDS0=    0 NMtDT0=    0
 Petite list used in FoFCou.
 Initial guess orbital symmetries:
       Occupied  (A') (A') (A') (A') (A') (A') (A') (A') (A") (A')
                 (A")
       Virtual   (A') (A") (A') (A') (A') (A") (A') (A') (A") (A')
                 (A') (A') (A") (A") (A') (A') (A') (A") (A') (A")
                 (A') (A') (A') (A') (A") (A') (A') (A') (A") (A')
                 (A") (A') (A") (A') (A') (A') (A") (A') (A') (A")
                 (A") (A') (A') (A") (A') (A") (A') (A') (A") (A')
                 (A") (A') (A') (A') (A") (A') (A") (A') (A") (A")
                 (A') (A") (A') (A') (A') (A') (A") (A') (A") (A')
                 (A') (A') (A") (A") (A') (A') (A') (A") (A") (A')
                 (A') (A") (A') (A') (A") (A') (A") (A') (A") (A')
                 (A') (A") (A') (A") (A') (A') (A') (A") (A') (A')
                 (A') (A") (A') (A") (A") (A') (A") (A') (A') (A")
                 (A') (A") (A') (A") (A') (A') (A") (A') (A') (A')
                 (A") (A') (A') (A") (A') (A') (A')
 The electronic state of the initial guess is 1-A'.
 Keep R1 ints in memory in symmetry-blocked form, NReq=69248520.
 Requested convergence on RMS density matrix=1.00D-08 within 128 cycles.
 Requested convergence on MAX density matrix=1.00D-06.
 Requested convergence on             energy=1.00D-06.
 No special actions if energy rises.
 SCF Done:  E(RHF) =  -187.656128472     A.U. after   10 cycles
            NFock= 10  Conv=0.15D-08     -V/T= 2.0059
 ExpMin= 3.57D-02 ExpMax= 1.53D+04 ExpMxC= 5.22D+02 IAcc=3 IRadAn=         5 AccDes= 0.00D+00
 HarFok:  IExCor=  205 AccDes= 0.00D+00 IRadAn=         5 IDoV=-2 UseB2=F ITyADJ=14
 ICtDFT= 12500011 ScaDFX=  1.000000  1.000000  1.000000  1.000000
 Range of M.O.s used for correlation:     4   138
 NBasis=   138 NAE=    11 NBE=    11 NFC=     3 NFV=     0
 NROrb=    135 NOA=     8 NOB=     8 NVA=   127 NVB=   127

 **** Warning!!: The largest alpha MO coefficient is  0.18841157D+02

 Fully direct method using O(ONN) memory.
 JobTyp=1 Pass  1:  I=   4 to   7 NPSUse=  8 ParTrn=T ParDer=T DoDerP=T.
 JobTyp=1 Pass  2:  I=   8 to  11 NPSUse=  8 ParTrn=T ParDer=T DoDerP=T.
 Spin components of T(2) and E(2):
     alpha-alpha T2 =       0.2682174092D-01 E2=     -0.8600892052D-01
     alpha-beta  T2 =       0.1344028421D+00 E2=     -0.4692005281D+00
     beta-beta   T2 =       0.2682174092D-01 E2=     -0.8600892052D-01
 ANorm=    0.1089975378D+01
 E2 =    -0.6412183691D+00 EUMP2 =    -0.18829734684134D+03
          IDoAtm=000111
          Differentiating once with respect to electric field.
                with respect to dipole field.
          Differentiating once with respect to nuclear coordinates.
 Keep R1 ints in memory in symmetry-blocked form, NReq=69249645.
          There are     1 degrees of freedom in the 1st order CPHF.  IDoFFX=0 NUNeed=     1.
 LinEq1:  Iter=  0 NonCon=     1 RMS=8.70D-03 Max=1.94D-01 NDo=     1
 AX will form     1 AO Fock derivatives at one time.
 LinEq1:  Iter=  1 NonCon=     1 RMS=2.58D-03 Max=3.90D-02 NDo=     1
 LinEq1:  Iter=  2 NonCon=     1 RMS=1.03D-03 Max=1.35D-02 NDo=     1
 LinEq1:  Iter=  3 NonCon=     1 RMS=3.90D-04 Max=5.99D-03 NDo=     1
 LinEq1:  Iter=  4 NonCon=     1 RMS=6.59D-05 Max=6.82D-04 NDo=     1
 LinEq1:  Iter=  5 NonCon=     1 RMS=7.73D-06 Max=7.50D-05 NDo=     1
 LinEq1:  Iter=  6 NonCon=     1 RMS=8.31D-07 Max=6.45D-06 NDo=     1
 LinEq1:  Iter=  7 NonCon=     1 RMS=7.16D-08 Max=7.17D-07 NDo=     1
 LinEq1:  Iter=  8 NonCon=     1 RMS=5.68D-09 Max=6.89D-08 NDo=     1
 LinEq1:  Iter=  9 NonCon=     1 RMS=4.28D-10 Max=3.79D-09 NDo=     1
 LinEq1:  Iter= 10 NonCon=     0 RMS=2.64D-11 Max=3.48D-10 NDo=     1
 Linear equations converged to 1.000D-10 1.000D-09 after    10 iterations.
 End of Minotr F.D. properties file   721 does not exist.
 End of Minotr F.D. properties file   722 does not exist.
 End of Minotr F.D. properties file   788 does not exist.

 **********************************************************************

            Population analysis using the SCF Density.

 **********************************************************************

 Orbital symmetries:
       Occupied  (A') (A') (A') (A') (A') (A') (A') (A") (A') (A')
                 (A")
       Virtual   (A') (A") (A') (A') (A") (A') (A') (A") (A') (A')
                 (A') (A") (A') (A') (A") (A') (A') (A') (A") (A")
                 (A') (A') (A') (A') (A") (A') (A") (A') (A') (A")
                 (A') (A") (A') (A') (A') (A') (A") (A") (A') (A')
                 (A") (A') (A") (A') (A') (A") (A') (A") (A') (A')
                 (A') (A") (A') (A') (A") (A') (A") (A") (A') (A')
                 (A") (A') (A") (A') (A') (A") (A') (A') (A') (A")
                 (A') (A') (A") (A') (A") (A') (A") (A') (A") (A')
                 (A') (A") (A') (A") (A') (A') (A') (A") (A") (A')
                 (A") (A') (A') (A") (A') (A') (A') (A") (A') (A')
                 (A') (A") (A') (A") (A') (A") (A') (A") (A") (A')
                 (A') (A") (A') (A') (A") (A') (A") (A') (A') (A")
                 (A') (A") (A') (A') (A') (A') (A')
 The electronic state is 1-A'.
 Alpha  occ. eigenvalues --  -20.67520 -20.67517 -11.51275  -1.47960  -1.42941
 Alpha  occ. eigenvalues --   -0.81099  -0.72305  -0.67761  -0.67761  -0.53998
 Alpha  occ. eigenvalues --   -0.53998
 Alpha virt. eigenvalues --    0.04406   0.07394   0.07394   0.07923   0.13710
 Alpha virt. eigenvalues --    0.13710   0.15988   0.16512   0.16512   0.18962
 Alpha virt. eigenvalues --    0.22183   0.24617   0.24617   0.27828   0.27828
 Alpha virt. eigenvalues --    0.29902   0.37765   0.44513   0.44513   0.48536
 Alpha virt. eigenvalues --    0.48536   0.49502   0.59847   0.65552   0.65552
 Alpha virt. eigenvalues --    0.68540   0.76518   0.76518   0.78405   0.78405
 Alpha virt. eigenvalues --    0.83166   0.89051   0.89051   0.92352   1.03511
 Alpha virt. eigenvalues --    1.03780   1.03780   1.05283   1.05283   1.08211
 Alpha virt. eigenvalues --    1.08211   1.11909   1.22248   1.22248   1.33790
 Alpha virt. eigenvalues --    1.33790   1.36718   1.44903   1.44903   1.49435
 Alpha virt. eigenvalues --    1.57386   1.57386   1.85347   2.02858   2.02858
 Alpha virt. eigenvalues --    2.17006   2.17006   2.23423   2.23423   2.23941
 Alpha virt. eigenvalues --    2.23941   2.28543   2.30589   2.30589   2.34286
 Alpha virt. eigenvalues --    2.40290   2.40290   2.43310   2.53157   2.53157
 Alpha virt. eigenvalues --    2.68867   2.77604   2.77604   2.78486   2.78486
 Alpha virt. eigenvalues --    2.94252   2.97813   2.97813   3.05847   3.05847
 Alpha virt. eigenvalues --    3.29892   3.29892   3.33631   3.33631   3.43777
 Alpha virt. eigenvalues --    3.65571   3.80234   3.80234   3.85582   3.85582
 Alpha virt. eigenvalues --    4.08346   4.08346   4.41792   4.65810   4.65810
 Alpha virt. eigenvalues --    4.87894   5.29891   5.42040   5.42040   6.33850
 Alpha virt. eigenvalues --    6.43687   6.43687   6.52717   6.52717   6.63575
 Alpha virt. eigenvalues --    6.63575   6.83657   6.83657   6.89702   6.89702
 Alpha virt. eigenvalues --    7.04631   7.04631   7.12860   7.13595   7.13595
 Alpha virt. eigenvalues --    7.21334   7.21334   7.22090   7.32527   7.66873
 Alpha virt. eigenvalues --    7.66873   7.80489   7.80489   7.80975  11.95268
 Alpha virt. eigenvalues --   14.21053  17.21176
          Condensed to atoms (all electrons):
               4          5          6
     4  C    4.300149   0.553102   0.553102
[...]
 ExpMin= 3.57D-02 ExpMax= 1.53D+04 ExpMxC= 5.22D+02 IAcc=3 IRadAn=         5 AccDes= 0.00D+00
 HarFok:  IExCor=  205 AccDes= 0.00D+00 IRadAn=         5 IDoV=-2 UseB2=F ITyADJ=14
 ICtDFT= 12500011 ScaDFX=  1.000000  1.000000  1.000000  1.000000
 Range of M.O.s used for correlation:     4   138
 NBasis=   138 NAE=    11 NBE=    11 NFC=     3 NFV=     0
 NROrb=    135 NOA=     8 NOB=     8 NVA=   127 NVB=   127

 **** Warning!!: The largest alpha MO coefficient is  0.19985481D+02

 Fully direct method using O(ONN) memory.
 JobTyp=1 Pass  1:  I=   4 to   7 NPSUse=  8 ParTrn=T ParDer=T DoDerP=T.
 JobTyp=1 Pass  2:  I=   8 to  11 NPSUse=  8 ParTrn=T ParDer=T DoDerP=T.
 Spin components of T(2) and E(2):
     alpha-alpha T2 =       0.2318837927D-01 E2=     -0.8206298226D-01
     alpha-beta  T2 =       0.1177128270D+00 E2=     -0.4506302330D+00
     beta-beta   T2 =       0.2318837927D-01 E2=     -0.8206298226D-01
 ANorm=    0.1078929833D+01
 E2 =    -0.6147561976D+00 EUMP2 =    -0.18832163432599D+03
          IDoAtm=111000
          Differentiating once with respect to electric field.
                with respect to dipole field.
          Differentiating once with respect to nuclear coordinates.
 Keep R1 ints in memory in symmetry-blocked form, NReq=69249645.
          There are     1 degrees of freedom in the 1st order CPHF.  IDoFFX=0 NUNeed=     1.
 LinEq1:  Iter=  0 NonCon=     1 RMS=6.81D-03 Max=1.41D-01 NDo=     1
 AX will form     1 AO Fock derivatives at one time.
 LinEq1:  Iter=  1 NonCon=     1 RMS=1.67D-03 Max=2.65D-02 NDo=     1
 LinEq1:  Iter=  2 NonCon=     1 RMS=5.68D-04 Max=6.24D-03 NDo=     1
 LinEq1:  Iter=  3 NonCon=     1 RMS=2.14D-04 Max=3.40D-03 NDo=     1
 LinEq1:  Iter=  4 NonCon=     1 RMS=3.76D-05 Max=4.61D-04 NDo=     1
 LinEq1:  Iter=  5 NonCon=     1 RMS=4.85D-06 Max=3.79D-05 NDo=     1
 LinEq1:  Iter=  6 NonCon=     1 RMS=2.09D-06 Max=3.39D-05 NDo=     1
 LinEq1:  Iter=  7 NonCon=     1 RMS=4.96D-07 Max=4.29D-06 NDo=     1
 LinEq1:  Iter=  8 NonCon=     1 RMS=5.54D-08 Max=5.27D-07 NDo=     1
 LinEq1:  Iter=  9 NonCon=     1 RMS=7.61D-09 Max=1.22D-07 NDo=     1
 LinEq1:  Iter= 10 NonCon=     1 RMS=1.05D-09 Max=1.24D-08 NDo=     1
 LinEq1:  Iter= 11 NonCon=     1 RMS=1.16D-10 Max=1.33D-09 NDo=     1
 LinEq1:  Iter= 12 NonCon=     0 RMS=1.98D-11 Max=1.82D-10 NDo=     1
 Linear equations converged to 1.000D-10 1.000D-09 after    12 iterations.
 End of Minotr F.D. properties file   721 does not exist.
 End of Minotr F.D. properties file   722 does not exist.
 End of Minotr F.D. properties file   788 does not exist.
 Calling FoFJK, ICntrl=  10002127 FMM=F ISym2X=1 I1Cent= 0 IOpClX= 0 NMat=1 NMatS=1 NMatT=0.
 ***** Axes restored to original set *****
 Cartesian Forces:  Max     0.004435502 RMS     0.001288467
 CPIOFr:  IOpCl= 0 IRwI=-1 IRwCP=  731 ICalc=  3 LCPTot=      115733 Len1MO=      309910 IndFrg=     1355373
 CPIOFr:  IOpCl= 0 IRwI=-2 IRwCP=20731 ICalc=  4 LCPTot=      115733 Len1MO=      309910 IndFrg=     1665283
 CPIOFr:  IOpCl= 0 IRwI= 4 IRwCP=20731 ICalc=  4 LCPTot=      115733 Len1MO=      309910 IndFrg=     1665283
 Counterpoise: doing calculation for fragment   2 using the basis set of the fragment.
 Basis read from rwf:  (5D, 7F)
 There are   111 symmetry adapted cartesian basis functions of A'  symmetry.
 There are    54 symmetry adapted cartesian basis functions of A"  symmetry.
 There are    90 symmetry adapted basis functions of A'  symmetry.
 There are    48 symmetry adapted basis functions of A"  symmetry.
   138 basis functions,   216 primitive gaussians,   165 cartesian basis functions
    11 alpha electrons       11 beta electrons
       nuclear repulsion energy        57.8833385832 Hartrees.
 NAtoms=    6 NActive=    3 NUniq=    3 SFac= 1.00D+00 NAtFMM=   60 NAOKFM=F Big=F
 Integral buffers will be    131072 words long.
 Raffenetti 1 integral format.
 Two-electron integral symmetry is turned on.
 One-electron integrals computed using PRISM.
 NBasis=   138 RedAO= T EigKep=  3.61D-04  NBF=    90    48
 NBsUse=   138 1.00D-06 EigRej= -1.00D+00 NBFU=    90    48
 Initial guess from the checkpoint file:  "co2-dimer.chk"
 B after Tr=     0.000070    0.000063   -0.000000
         Rot=    1.000000    0.000000    0.000000    0.000015 Ang=   0.00 deg.
 Initial guess orbital symmetries:
       Occupied  (A') (A') (A') (A') (A') (A') (A') (A") (A') (A")
                 (A')
       Virtual   (A') (A") (A') (A') (A') (A') (A") (A') (A") (A')
                 (A') (A") (A') (A") (A') (A') (A') (A") (A') (A')
                 (A") (A') (A') (A") (A') (A') (A") (A') (A') (A")
                 (A') (A") (A') (A') (A') (A") (A') (A") (A') (A")
                 (A') (A') (A") (A') (A') (A") (A') (A") (A') (A')
                 (A') (A") (A') (A") (A') (A') (A") (A') (A") (A")
                 (A') (A') (A") (A') (A') (A') (A') (A") (A') (A")
                 (A') (A') (A") (A') (A") (A') (A') (A") (A") (A')
                 (A') (A") (A') (A") (A') (A') (A") (A') (A") (A')
                 (A') (A") (A') (A') (A") (A') (A') (A") (A') (A')
                 (A') (A") (A') (A") (A') (A") (A") (A') (A') (A")
                 (A') (A") (A') (A") (A') (A') (A") (A') (A') (A')
                 (A") (A') (A') (A") (A') (A') (A')
 Keep R1 ints in memory in symmetry-blocked form, NReq=69248520.
 Requested convergence on RMS density matrix=1.00D-08 within 128 cycles.
 Requested convergence on MAX density matrix=1.00D-06.
 Requested convergence on             energy=1.00D-06.
 No special actions if energy rises.
 SCF Done:  E(RHF) =  -187.706878159     A.U. after    1 cycles
            NFock=  1  Conv=0.47D-08     -V/T= 2.0024
 ExpMin= 3.57D-02 ExpMax= 1.53D+04 ExpMxC= 5.22D+02 IAcc=3 IRadAn=         5 AccDes= 0.00D+00
 HarFok:  IExCor=  205 AccDes= 0.00D+00 IRadAn=         5 IDoV=-2 UseB2=F ITyADJ=14
 ICtDFT= 12500011 ScaDFX=  1.000000  1.000000  1.000000  1.000000
 Range of M.O.s used for correlation:     4   138
 NBasis=   138 NAE=    11 NBE=    11 NFC=     3 NFV=     0
 NROrb=    135 NOA=     8 NOB=     8 NVA=   127 NVB=   127

 **** Warning!!: The largest alpha MO coefficient is  0.19985481D+02

 Fully direct method using O(ONN) memory.
 JobTyp=1 Pass  1:  I=   4 to   7 NPSUse=  8 ParTrn=T ParDer=T DoDerP=T.
 JobTyp=1 Pass  2:  I=   8 to  11 NPSUse=  8 ParTrn=T ParDer=T DoDerP=T.
 Spin components of T(2) and E(2):
     alpha-alpha T2 =       0.2318837593D-01 E2=     -0.8206297942D-01
     alpha-beta  T2 =       0.1177128121D+00 E2=     -0.4506302202D+00
     beta-beta   T2 =       0.2318837593D-01 E2=     -0.8206297942D-01
 ANorm=    0.1078929823D+01
 E2 =    -0.6147561790D+00 EUMP2 =    -0.18832163433757D+03
          IDoAtm=000111
          Differentiating once with respect to electric field.
                with respect to dipole field.
          Differentiating once with respect to nuclear coordinates.
 Keep R1 ints in memory in symmetry-blocked form, NReq=69249645.
          There are     1 degrees of freedom in the 1st order CPHF.  IDoFFX=0 NUNeed=     1.
 LinEq1:  Iter=  0 NonCon=     1 RMS=6.81D-03 Max=1.41D-01 NDo=     1
 AX will form     1 AO Fock derivatives at one time.
 LinEq1:  Iter=  1 NonCon=     1 RMS=1.67D-03 Max=2.65D-02 NDo=     1
 LinEq1:  Iter=  2 NonCon=     1 RMS=5.68D-04 Max=6.24D-03 NDo=     1
 LinEq1:  Iter=  3 NonCon=     1 RMS=2.14D-04 Max=3.40D-03 NDo=     1
 LinEq1:  Iter=  4 NonCon=     1 RMS=3.76D-05 Max=4.61D-04 NDo=     1
 LinEq1:  Iter=  5 NonCon=     1 RMS=4.85D-06 Max=3.79D-05 NDo=     1
 LinEq1:  Iter=  6 NonCon=     1 RMS=2.09D-06 Max=3.39D-05 NDo=     1
 LinEq1:  Iter=  7 NonCon=     1 RMS=4.96D-07 Max=4.29D-06 NDo=     1
 LinEq1:  Iter=  8 NonCon=     1 RMS=5.54D-08 Max=5.27D-07 NDo=     1
 LinEq1:  Iter=  9 NonCon=     1 RMS=7.61D-09 Max=1.22D-07 NDo=     1
 LinEq1:  Iter= 10 NonCon=     1 RMS=1.05D-09 Max=1.24D-08 NDo=     1
 LinEq1:  Iter= 11 NonCon=     1 RMS=1.16D-10 Max=1.33D-09 NDo=     1
 LinEq1:  Iter= 12 NonCon=     0 RMS=1.98D-11 Max=1.82D-10 NDo=     1
 Linear equations converged to 1.000D-10 1.000D-09 after    12 iterations.
 End of Minotr F.D. properties file   721 does not exist.
 End of Minotr F.D. properties file   722 does not exist.
 End of Minotr F.D. properties file   788 does not exist.
 Calling FoFJK, ICntrl=  10002127 FMM=F ISym2X=1 I1Cent= 0 IOpClX= 0 NMat=1 NMatS=1 NMatT=0.
 ***** Axes restored to original set *****
 Cartesian Forces:  Max     0.004434506 RMS     0.001288187
 CPIOFr:  IOpCl= 0 IRwI=-1 IRwCP=  731 ICalc=  4 LCPTot=      115733 Len1MO=      309910 IndFrg=     1665283
 CPIOFr:  IOpCl= 0 IRwI=-2 IRwCP=  731 ICalc=  0 LCPTot=      115733 Len1MO=      309910 IndFrg=      425643
 Counterpoise corrected energy =    -376.645327793746
                   BSSE energy =       0.000488336755
              sum of fragments =    -376.643268663560
           complexation energy =      -1.60 kcal/mole (raw)
           complexation energy =      -1.29 kcal/mole (corrected)
 Rotating derivatives to standard orientation.
 ***** Axes restored to original set *****
 -------------------------------------------------------------------
 Center     Atomic             Integrated Forces (Hartrees/Bohr)
 Number     Number              X              Y              Z
 -------------------------------------------------------------------
      1        6           0.000000902    0.000000245    0.000000000
      2        8          -0.000000267   -0.000000086   -0.000000000
      3        8          -0.000000642   -0.000000144   -0.000000000
      4        6          -0.000000014   -0.000000353    0.000000000
      5        8          -0.000000074    0.000000116   -0.000000000
      6        8           0.000000096    0.000000222    0.000000000
 -------------------------------------------------------------------
 Integrated Cartesian Forces:  Max     0.000000902 RMS     0.000000297

 GradGradGradGradGradGradGradGradGradGradGradGradGradGradGradGradGradGrad
 Berny optimization.
 Using GEDIIS/GDIIS optimizer.
 FormGI is forming the generalized inverse of G from B-inverse, IUseBI=4.
 Internal  Forces:  Max     0.000000631 RMS     0.000000173
 Search for a local minimum.
 Step number  28 out of a maximum of   32
 All quantities printed in internal units (Hartrees-Bohrs-Radians)
 Mixed Optimization -- En-DIIS/RFO-DIIS
 Swapping is turned off.
 Update second derivatives using D2CorX and points    7    8    9   10   11
                                                     12   13   14   15   16
                                                     17   18   19   20   21
                                                     22   23   24   25   26
                                                     27   28
 DE= -5.94D-08 DEPred=-5.14D-12 R= 1.16D+04
 Trust test= 1.16D+04 RLast= 9.61D-05 DXMaxT set to 5.00D-02
 ITU=  0 -1  0 -1  0  0 -1  0  0 -1 -1  0  0  1  1  1  1  1  1  1
 ITU=  1  0 -1
     Eigenvalues ---    0.00139   0.00160   0.00442   0.00543   0.01897
     Eigenvalues ---    0.02480   0.07670   0.11996   0.78666   0.88472
     Eigenvalues ---    0.99101   1.10152
 En-DIIS/RFO-DIIS/Sim-DIIS IScMMF=       -3 using points:    28   27   26   25   24   23   22   21   20   19
 RFO step:  Lambda=-1.50859021D-12.
 DIIS inversion failure, remove point  10.
 DIIS inversion failure, remove point   9.
 DIIS inversion failure, remove point   8.
 DIIS inversion failure, remove point   7.
 DIIS inversion failure, remove point   6.
 DIIS inversion failure, remove point   5.
 DIIS inversion failure, remove point   4.
 DIIS inversion failure, remove point   3.
 DIIS inversion failure, remove point   2.
 Use linear search instead of GDIIS.
 RFO step:  Lambda= 0.00000000D+00 EMin= 1.38894600D-03
 Skip linear search -- no minimum in search direction.
 Iteration  1 RMS(Cart)=  0.00001312 RMS(Int)=  0.00000000
 Iteration  2 RMS(Cart)=  0.00000000 RMS(Int)=  0.00000000
 ClnCor:  largest displacement from symmetrization is 1.04D-14 for atom     4.
 Variable       Old X    -DE/DX   Delta X   Delta X   Delta X     New X
                                 (Linear)    (Quad)   (Total)
    R1        2.20902   0.00000   0.00000  -0.00000  -0.00000   2.20902
    R2        2.21367  -0.00000   0.00000  -0.00000  -0.00000   2.21367
    R3        5.90468   0.00000   0.00000   0.00003   0.00003   5.90472
    R4        5.90467  -0.00000   0.00000  -0.00003  -0.00003   5.90464
    R5        2.21367   0.00000   0.00000  -0.00000  -0.00000   2.21367
    R6        2.20902   0.00000   0.00000   0.00000   0.00000   2.20902
    A1        1.78058  -0.00000   0.00000   0.00001   0.00001   1.78059
    A2        1.36460  -0.00000   0.00000  -0.00001  -0.00001   1.36459
    A3        1.77699   0.00000   0.00000   0.00002   0.00002   1.77701
    A4        1.36461  -0.00000   0.00000   0.00001   0.00001   1.36462
    A5        1.78058  -0.00000   0.00000  -0.00001  -0.00001   1.78056
    A6        1.77698  -0.00000   0.00000  -0.00001  -0.00001   1.77697
    A7        3.14518  -0.00000   0.00000  -0.00000  -0.00000   3.14518
    A8        3.14518  -0.00000   0.00000  -0.00000  -0.00000   3.14518
    A9        3.14159   0.00000   0.00000  -0.00000   0.00000   3.14159
   A10        3.14159  -0.00000   0.00000   0.00000   0.00000   3.14159
    D1       -0.00000   0.00000   0.00000   0.00000   0.00000   0.00000
    D2        3.14159  -0.00000   0.00000  -0.00000   0.00000   3.14159
    D3        0.00000   0.00000   0.00000  -0.00000   0.00000   0.00000
    D4        0.00000   0.00000   0.00000  -0.00000  -0.00000   0.00000
    D5        3.14159  -0.00000   0.00000  -0.00000   0.00000   3.14159
    D6       -0.00000  -0.00000   0.00000   0.00000   0.00000   0.00000
         Item               Value     Threshold  Converged?
 Maximum Force            0.000001     0.000015     YES
 RMS     Force            0.000000     0.000010     YES
 Maximum Displacement     0.000032     0.000060     YES
 RMS     Displacement     0.000013     0.000040     YES
 Predicted change in Energy=-3.135797D-12
 Optimization completed.
    -- Stationary point found.
                           ----------------------------
                           !   Optimized Parameters   !
                           ! (Angstroms and Degrees)  !
 --------------------------                            --------------------------
 ! Name  Definition              Value          Derivative Info.                !
 --------------------------------------------------------------------------------
 ! R1    R(1,2)                  1.169          -DE/DX =    0.0                 !
 ! R2    R(1,3)                  1.1714         -DE/DX =    0.0                 !
 ! R3    R(1,5)                  3.1246         -DE/DX =    0.0                 !
 ! R4    R(3,4)                  3.1246         -DE/DX =    0.0                 !
 ! R5    R(4,5)                  1.1714         -DE/DX =    0.0                 !
 ! R6    R(4,6)                  1.169          -DE/DX =    0.0                 !
 ! A1    A(2,1,5)              102.0198         -DE/DX =    0.0                 !
 ! A2    A(3,1,5)               78.1859         -DE/DX =    0.0                 !
 ! A3    A(1,3,4)              101.8141         -DE/DX =    0.0                 !
 ! A4    A(3,4,5)               78.1863         -DE/DX =    0.0                 !
 ! A5    A(3,4,6)              102.0194         -DE/DX =    0.0                 !
 ! A6    A(1,5,4)              101.8136         -DE/DX =    0.0                 !
 ! A7    L(2,1,3,5,-1)         180.2057         -DE/DX =    0.0                 !
 ! A8    L(5,4,6,3,-1)         180.2058         -DE/DX =    0.0                 !
 ! A9    L(2,1,3,5,-2)         180.0            -DE/DX =    0.0                 !
 ! A10   L(5,4,6,3,-2)         180.0            -DE/DX =    0.0                 !
 ! D1    D(5,1,3,4)              0.0            -DE/DX =    0.0                 !
 ! D2    D(2,1,5,4)            180.0            -DE/DX =    0.0                 !
 ! D3    D(3,1,5,4)              0.0            -DE/DX =    0.0                 !
 ! D4    D(1,3,4,5)              0.0            -DE/DX =    0.0                 !
 ! D5    D(1,3,4,6)            180.0            -DE/DX =    0.0                 !
 ! D6    D(3,4,5,1)              0.0            -DE/DX =    0.0                 !
 --------------------------------------------------------------------------------
 GradGradGradGradGradGradGradGradGradGradGradGradGradGradGradGradGradGrad

                          Input orientation:                          
 ---------------------------------------------------------------------
 Center     Atomic      Atomic             Coordinates (Angstroms)
 Number     Number       Type             X           Y           Z
 ---------------------------------------------------------------------
      1          6           0       -2.775441    0.190374   -0.000000
      2          8           0       -3.944184    0.213167   -0.000000
      3          8           0       -1.604165    0.171739   -0.000000
      4          6           0       -1.013175   -2.896477    0.000000
      5          8           0       -2.184451   -2.877851   -0.000000
      6          8           0        0.155568   -2.919261    0.000000
 ---------------------------------------------------------------------
                    Distance matrix (angstroms):
                    1          2          3          4          5
     1  C    0.000000
     2  O    1.168965   0.000000
     3  O    1.171424   2.340386   0.000000
     4  C    3.554466   4.273254   3.124614   0.000000
     5  O    3.124624   3.556832   3.104308   1.171424   0.000000
     6  O    4.273248   5.159464   3.556816   1.168965   2.340385
                    6
     6  O    0.000000
 Stoichiometry    C2O4
 Framework group  CS[SG(C2O4)]
 Deg. of freedom     9
 Full point group                 CS      NOp   2
 Largest Abelian subgroup         CS      NOp   2
 Largest concise Abelian subgroup C1      NOp   1
                         Standard orientation:                         
 ---------------------------------------------------------------------
 Center     Atomic      Atomic             Coordinates (Angstroms)
 Number     Number       Type             X           Y           Z
 ---------------------------------------------------------------------
      1          6           0       -1.154114    1.351510    0.000000
      2          8           0       -2.306516    1.155428    0.000000
      3          8           0       -0.000000    1.552150    0.000000
      4          6           0        1.154114   -1.351510   -0.000000
      5          8           0        0.000002   -1.552158   -0.000000
      6          8           0        2.306515   -1.155420   -0.000000
 ---------------------------------------------------------------------
 Rotational constants (GHZ):           8.6107640           1.6457780           1.3816943
 Unable to Open any file for archive entry.
 1\1\GINC-GRA387\FOpt\RMP2-FC\Aug-CC-pVTZ\C2O4\CROWLEY\25-Jan-2022\0\\#
 MP2/aug-cc-pvtz opt=tight counterpoise=2\\Title Card Required\\0,1\C,-
 2.7754413338,0.1903738323,0.\O,-3.9441842526,0.2131667136,0.\O,-1.6041
 654465,0.1717386988,0.\C,-1.0131751253,-2.8964767377,0.\O,-2.184451051
 4,-2.8778509378,0.\O,0.1555678597,-2.9192612592,0.\\Version=ES64L-G16R
 evC.01\HF=-187.7068782\MP2=-188.3216343\RMSD=4.679e-09\RMSF=2.969e-07\
 Dipole=0.0000025,0.0000013,0.\PG=CS [SG(C2O4)]\\@
 The archive entry for this job was punched.


 THE 2ND LAW OF THERMODYNAMICS HAS THE SAME
 DEGREE OF TRUTH AS THE STATEMENT THAT IF YOU THROW
 A TUMBLERFULL OF WATER INTO THE SEA, YOU CANNOT GET
 THE SAME TUMBLERFULL OF WATER OUT AGAIN.
          - J.C. MAXWELL, LETTER TO LORD RAYLEIGH, DECEMBER 6,1870
 Job cpu time:       1 days  8 hours 11 minutes 33.7 seconds.
 Elapsed time:       0 days  4 hours 13 minutes 29.3 seconds.
 File lengths (MBytes):  RWF=   7693 Int=      0 D2E=      0 Chk=     21 Scr=      1
 Normal termination of Gaussian 16 at Tue Jan 25 05:08:39 2022.
