 Entering Gaussian System, Link 0=g16
 Initial command:
 /opt/software/gaussian/g16.c01/l1.exe "/localscratch/crowley.57124078.0/Gau-12093.inp" -scrdir="/localscratch/crowley.57124078.0/"
 Entering Link 1 = /opt/software/gaussian/g16.c01/l1.exe PID=     12095.
  
 Copyright (c) 1988-2019, Gaussian, Inc.  All Rights Reserved.
  
 This is part of the Gaussian(R) 16 program.  It is based on
 the Gaussian(R) 09 system (copyright 2009, Gaussian, Inc.),
 the Gaussian(R) 03 system (copyright 2003, Gaussian, Inc.),
 the Gaussian(R) 98 system (copyright 1998, Gaussian, Inc.),
 the Gaussian(R) 94 system (copyright 1995, Gaussian, Inc.),
 the Gaussian 92(TM) system (copyright 1992, Gaussian, Inc.),
 the Gaussian 90(TM) system (copyright 1990, Gaussian, Inc.),
 the Gaussian 88(TM) system (copyright 1988, Gaussian, Inc.),
 the Gaussian 86(TM) system (copyright 1986, Carnegie Mellon
 University), and the Gaussian 82(TM) system (copyright 1983,
 Carnegie Mellon University). Gaussian is a federally registered
 trademark of Gaussian, Inc.
  
 This software contains proprietary and confidential information,
 including trade secrets, belonging to Gaussian, Inc.
  
 This software is provided under written license and may be
 used, copied, transmitted, or stored only in accord with that
 written license.
  
 The following legend is applicable only to US Government
 contracts under FAR:
  
                    RESTRICTED RIGHTS LEGEND
  
 Use, reproduction and disclosure by the US Government is
 subject to restrictions as set forth in subparagraphs (a)
 and (c) of the Commercial Computer Software - Restricted
 Rights clause in FAR 52.227-19.
  
 Gaussian, Inc.
 340 Quinnipiac St., Bldg. 40, Wallingford CT 06492
  
  
 ---------------------------------------------------------------
 Warning -- This program may not be used in any manner that
 competes with the business of Gaussian, Inc. or will provide
 assistance to any competitor of Gaussian, Inc.  The licensee
 of this program is prohibited from giving any competitor of
 Gaussian, Inc. access to this program.  By using this program,
 the user acknowledges that Gaussian, Inc. is engaged in the
 business of creating and licensing software in the field of
 computational chemistry and represents and warrants to the
 licensee that it is not a competitor of Gaussian, Inc. and that
 it will not use this program in any manner prohibited above.
 ---------------------------------------------------------------
  

 Cite this work as:
 Gaussian 16, Revision C.01,
 M. J. Frisch, G. W. Trucks, H. B. Schlegel, G. E. Scuseria, 
 M. A. Robb, J. R. Cheeseman, G. Scalmani, V. Barone, 
 G. A. Petersson, H. Nakatsuji, X. Li, M. Caricato, A. V. Marenich, 
 J. Bloino, B. G. Janesko, R. Gomperts, B. Mennucci, H. P. Hratchian, 
 J. V. Ortiz, A. F. Izmaylov, J. L. Sonnenberg, D. Williams-Young, 
 F. Ding, F. Lipparini, F. Egidi, J. Goings, B. Peng, A. Petrone, 
 T. Henderson, D. Ranasinghe, V. G. Zakrzewski, J. Gao, N. Rega, 
 G. Zheng, W. Liang, M. Hada, M. Ehara, K. Toyota, R. Fukuda, 
 J. Hasegawa, M. Ishida, T. Nakajima, Y. Honda, O. Kitao, H. Nakai, 
 T. Vreven, K. Throssell, J. A. Montgomery, Jr., J. E. Peralta, 
 F. Ogliaro, M. J. Bearpark, J. J. Heyd, E. N. Brothers, K. N. Kudin, 
 V. N. Staroverov, T. A. Keith, R. Kobayashi, J. Normand, 
 K. Raghavachari, A. P. Rendell, J. C. Burant, S. S. Iyengar, 
 J. Tomasi, M. Cossi, J. M. Millam, M. Klene, C. Adamo, R. Cammi, 
 J. W. Ochterski, R. L. Martin, K. Morokuma, O. Farkas, 
 J. B. Foresman, and D. J. Fox, Gaussian, Inc., Wallingford CT, 2019.
 
 ******************************************
 Gaussian 16:  ES64L-G16RevC.01  3-Jul-2019
                25-Jan-2022 
 ******************************************
 %chk=co2.chk
 %nproc=8
 Will use up to    8 processors via shared memory.
 %mem=2000MB
 ----------------------------------------------------
 #MP2/aug-cc-pvtz opt=tight pop=(full,chelpg) density
 ----------------------------------------------------
 1/7=10,18=20,19=15,38=1/1,3;
 2/9=110,12=2,17=6,18=5,40=1/2;
 3/5=16,6=1,7=10,11=9,25=1,30=1,71=1/1,2,3;
 4//1;
 5/5=2,38=5/2;
 8/6=4,10=1/1;
 9/15=2,16=-3/6;
 10/5=1/2;
 6/7=3,15=8,20=3,22=-1/1,2;
 7/12=2/1,2,3,16;
 1/7=10,18=20,19=15/3(2);
 2/9=110/2;
 99//99;
 2/9=110/2;
 3/5=16,6=1,7=10,11=9,25=1,30=1,71=1/1,2,3;
 4/5=5,16=3,69=1/1;
 5/5=2,38=5/2;
 8/6=4,10=1/1;
 9/15=2,16=-3/6;
 10/5=1/2;
 7/12=2/1,2,3,16;
 1/7=10,18=20,19=15/3(-8);
 2/9=110/2;
 6/7=3,15=8,20=3,22=-1/1,2;
 99/9=10/99;
 -------------------
 Title Card Required
 -------------------
 Symbolic Z-matrix:
 Charge =  0 Multiplicity = 1
 C                    -2.51131  -0.27903   0. 
 O                    -3.76971  -0.27903   0. 
 O                    -1.25291  -0.27903   0. 
 

 GradGradGradGradGradGradGradGradGradGradGradGradGradGradGradGradGradGrad
 Berny optimization.
 Initialization pass.
                           ----------------------------
                           !    Initial Parameters    !
                           ! (Angstroms and Degrees)  !
 --------------------------                            --------------------------
 ! Name  Definition              Value          Derivative Info.                !
 --------------------------------------------------------------------------------
 ! R1    R(1,2)                  1.2584         estimate D2E/DX2                !
 ! R2    R(1,3)                  1.2584         estimate D2E/DX2                !
 ! A1    L(2,1,3,-2,-1)        180.0            estimate D2E/DX2                !
 ! A2    L(2,1,3,-3,-2)        180.0            estimate D2E/DX2                !
 --------------------------------------------------------------------------------
 Trust Radius=3.00D-01 FncErr=1.00D-07 GrdErr=1.00D-07 EigMax=2.50D+02 EigMin=1.00D-04
 Number of steps in this run=     20 maximum allowed number of steps=    100.
 GradGradGradGradGradGradGradGradGradGradGradGradGradGradGradGradGradGrad

                          Input orientation:                          
 ---------------------------------------------------------------------
 Center     Atomic      Atomic             Coordinates (Angstroms)
 Number     Number       Type             X           Y           Z
 ---------------------------------------------------------------------
      1          6           0       -2.511312   -0.279035    0.000000
      2          8           0       -3.769712   -0.279035    0.000000
      3          8           0       -1.252912   -0.279035    0.000000
 ---------------------------------------------------------------------
                    Distance matrix (angstroms):
                    1          2          3
     1  C    0.000000
     2  O    1.258400   0.000000
     3  O    1.258400   2.516800   0.000000
 Stoichiometry    CO2
 Framework group  D*H[O(C),C*(O.O)]
 Deg. of freedom     1
 Full point group                 D*H     NOp   8
 Largest Abelian subgroup         D2H     NOp   8
 Largest concise Abelian subgroup C2      NOp   2
                         Standard orientation:                         
 ---------------------------------------------------------------------
 Center     Atomic      Atomic             Coordinates (Angstroms)
 Number     Number       Type             X           Y           Z
 ---------------------------------------------------------------------
      1          6           0        0.000000    0.000000    0.000000
      2          8           0        0.000000    0.000000    1.258400
      3          8           0        0.000000    0.000000   -1.258400
 ---------------------------------------------------------------------
 Rotational constants (GHZ):           0.0000000           9.9762623           9.9762623
 Standard basis: Aug-CC-pVTZ (5D, 7F)
 There are    38 symmetry adapted cartesian basis functions of AG  symmetry.
 There are     8 symmetry adapted cartesian basis functions of B1G symmetry.
 There are    16 symmetry adapted cartesian basis functions of B2G symmetry.
 There are    16 symmetry adapted cartesian basis functions of B3G symmetry.
 There are     7 symmetry adapted cartesian basis functions of AU  symmetry.
 There are    34 symmetry adapted cartesian basis functions of B1U symmetry.
 There are    23 symmetry adapted cartesian basis functions of B2U symmetry.
 There are    23 symmetry adapted cartesian basis functions of B3U symmetry.
 There are    30 symmetry adapted basis functions of AG  symmetry.
 There are     8 symmetry adapted basis functions of B1G symmetry.
 There are    14 symmetry adapted basis functions of B2G symmetry.
 There are    14 symmetry adapted basis functions of B3G symmetry.
 There are     7 symmetry adapted basis functions of AU  symmetry.
 There are    27 symmetry adapted basis functions of B1U symmetry.
 There are    19 symmetry adapted basis functions of B2U symmetry.
 There are    19 symmetry adapted basis functions of B3U symmetry.
   138 basis functions,   216 primitive gaussians,   165 cartesian basis functions
    11 alpha electrons       11 beta electrons
       nuclear repulsion energy        53.8260354401 Hartrees.
 NAtoms=    3 NActive=    3 NUniq=    2 SFac= 2.25D+00 NAtFMM=   60 NAOKFM=F Big=F
 Integral buffers will be    131072 words long.
 Raffenetti 1 integral format.
 Two-electron integral symmetry is turned on.
 One-electron integrals computed using PRISM.
 NBasis=   138 RedAO= T EigKep=  4.29D-04  NBF=    30     8    14    14     7    27    19    19
 NBsUse=   138 1.00D-06 EigRej= -1.00D+00 NBFU=    30     8    14    14     7    27    19    19
 ExpMin= 3.57D-02 ExpMax= 1.53D+04 ExpMxC= 5.22D+02 IAcc=3 IRadAn=         5 AccDes= 0.00D+00
 Harris functional with IExCor=  205 and IRadAn=       5 diagonalized for initial guess.
 HarFok:  IExCor=  205 AccDes= 0.00D+00 IRadAn=         5 IDoV= 1 UseB2=F ITyADJ=14
 ICtDFT=  3500011 ScaDFX=  1.000000  1.000000  1.000000  1.000000
 FoFCou: FMM=F IPFlag=           0 FMFlag=      100000 FMFlg1=           0
         NFxFlg=           0 DoJE=T BraDBF=F KetDBF=T FulRan=T
         wScrn=  0.000000 ICntrl=       500 IOpCl=  0 I1Cent=   200000004 NGrid=           0
         NMat0=    1 NMatS0=      1 NMatT0=    0 NMatD0=    1 NMtDS0=    0 NMtDT0=    0
 Petite list used in FoFCou.
 Initial guess orbital symmetries:
       Occupied  (SGU) (SGG) (SGG) (SGG) (SGU) (SGG) (SGU) (PIU)
                 (PIU) (PIG) (PIG)
       Virtual   (PIU) (PIU) (SGG) (SGU) (PIU) (PIU) (SGG) (SGG)
                 (PIG) (PIG) (SGU) (PIU) (PIU) (DLTG) (DLTG) (SGU)
                 (SGG) (PIU) (PIU) (PIG) (PIG) (SGG) (SGU) (DLTU)
                 (DLTU) (SGG) (SGU) (PIG) (PIG) (DLTG) (DLTG) (PIU)
                 (PIU) (SGG) (SGU) (DLTG) (DLTG) (SGU) (PHIU) (PHIU)
                 (PIU) (PIU) (PIG) (PIG) (DLTU) (DLTU) (SGU) (PIG)
                 (PIG) (SGG) (PIU) (PIU) (SGG) (PHIG) (PHIG) (DLTU)
                 (DLTU) (DLTG) (DLTG) (PIU) (PIU) (PHIU) (PHIU)
                 (SGG) (SGG) (PIG) (PIG) (SGU) (DLTG) (DLTG) (SGU)
                 (PIU) (PIU) (DLTU) (DLTU) (SGU) (PIG) (PIG) (PIU)
                 (PIU) (DLTG) (DLTG) (SGG) (PHIU) (PHIU) (SGU)
                 (PIG) (PIG) (DLTU) (DLTU) (PIU) (PIU) (SGG) (PIG)
                 (PIG) (SGU) (SGG) (PIU) (PIU) (SGU) (PHIG) (PHIG)
                 (PHIU) (PHIU) (DLTG) (DLTG) (DLTU) (DLTU) (PIG)
                 (PIG) (DLTG) (DLTG) (DLTU) (DLTU) (SGU) (PIU)
                 (PIU) (SGG) (SGG) (PIG) (PIG) (SGU) (PIU) (PIU)
                 (SGG) (SGG) (SGU)
 The electronic state of the initial guess is 1-SGG.
 Keep R1 ints in memory in symmetry-blocked form, NReq=51901092.
 Requested convergence on RMS density matrix=1.00D-08 within 128 cycles.
 Requested convergence on MAX density matrix=1.00D-06.
 Requested convergence on             energy=1.00D-06.
 No special actions if energy rises.
 SCF Done:  E(RHF) =  -187.656128471     A.U. after   10 cycles
            NFock= 10  Conv=0.15D-08     -V/T= 2.0059
 ExpMin= 3.57D-02 ExpMax= 1.53D+04 ExpMxC= 5.22D+02 IAcc=3 IRadAn=         5 AccDes= 0.00D+00
 HarFok:  IExCor=  205 AccDes= 0.00D+00 IRadAn=         5 IDoV=-2 UseB2=F ITyADJ=14
 ICtDFT= 12500011 ScaDFX=  1.000000  1.000000  1.000000  1.000000
 Range of M.O.s used for correlation:     4   138
 NBasis=   138 NAE=    11 NBE=    11 NFC=     3 NFV=     0
 NROrb=    135 NOA=     8 NOB=     8 NVA=   127 NVB=   127

 **** Warning!!: The largest alpha MO coefficient is  0.18841157D+02

 Fully direct method using O(ONN) memory.
 JobTyp=1 Pass  1:  I=   4 to  11 NPSUse=  8 ParTrn=T ParDer=T DoDerP=T.
 Spin components of T(2) and E(2):
     alpha-alpha T2 =       0.2682174098D-01 E2=     -0.8600892058D-01
     alpha-beta  T2 =       0.1344028423D+00 E2=     -0.4692005284D+00
     beta-beta   T2 =       0.2682174098D-01 E2=     -0.8600892058D-01
 ANorm=    0.1089975378D+01
 E2 =    -0.6412183695D+00 EUMP2 =    -0.18829734684067D+03
          IDoAtm=111
          Differentiating once with respect to electric field.
                with respect to dipole field.
          Differentiating once with respect to nuclear coordinates.
 Keep R1 ints in memory in symmetry-blocked form, NReq=51901980.
          There are     1 degrees of freedom in the 1st order CPHF.  IDoFFX=0 NUNeed=     1.
 LinEq1:  Iter=  0 NonCon=     1 RMS=8.70D-03 Max=1.94D-01 NDo=     1
 AX will form     1 AO Fock derivatives at one time.
 LinEq1:  Iter=  1 NonCon=     1 RMS=2.58D-03 Max=3.90D-02 NDo=     1
 LinEq1:  Iter=  2 NonCon=     1 RMS=1.03D-03 Max=1.35D-02 NDo=     1
 LinEq1:  Iter=  3 NonCon=     1 RMS=3.90D-04 Max=5.99D-03 NDo=     1
 LinEq1:  Iter=  4 NonCon=     1 RMS=6.59D-05 Max=6.82D-04 NDo=     1
 LinEq1:  Iter=  5 NonCon=     1 RMS=7.73D-06 Max=7.50D-05 NDo=     1
 LinEq1:  Iter=  6 NonCon=     1 RMS=8.31D-07 Max=6.45D-06 NDo=     1
 LinEq1:  Iter=  7 NonCon=     1 RMS=7.16D-08 Max=7.17D-07 NDo=     1
 LinEq1:  Iter=  8 NonCon=     1 RMS=5.68D-09 Max=6.89D-08 NDo=     1
 LinEq1:  Iter=  9 NonCon=     1 RMS=4.28D-10 Max=3.79D-09 NDo=     1
 LinEq1:  Iter= 10 NonCon=     0 RMS=2.64D-11 Max=3.48D-10 NDo=     1
 Linear equations converged to 1.000D-10 1.000D-09 after    10 iterations.
 End of Minotr F.D. properties file   721 does not exist.
 End of Minotr F.D. properties file   722 does not exist.
 End of Minotr F.D. properties file   788 does not exist.

 **********************************************************************

            Population analysis using the MP2 Density.

 **********************************************************************

 Orbital symmetries:
       Occupied  (SGU) (SGG) (SGG) (SGG) (SGU) (SGG) (SGU) (PIU)
                 (PIU) (PIG) (PIG)
       Virtual   (SGG) (PIU) (PIU) (SGU) (PIU) (PIU) (SGG) (PIG)
                 (PIG) (SGG) (SGU) (PIU) (PIU) (DLTG) (DLTG) (SGU)
                 (SGG) (PIU) (PIU) (PIG) (PIG) (SGG) (SGU) (DLTU)
                 (DLTU) (SGG) (PIG) (PIG) (DLTG) (DLTG) (SGU) (PIU)
                 (PIU) (SGG) (SGU) (PHIU) (PHIU) (DLTG) (DLTG)
                 (PIU) (PIU) (SGU) (PIG) (PIG) (DLTU) (DLTU) (SGU)
                 (PIG) (PIG) (SGG) (PIU) (PIU) (SGG) (PHIG) (PHIG)
                 (DLTU) (DLTU) (PHIU) (PHIU) (DLTG) (DLTG) (SGG)
                 (PIU) (PIU) (SGG) (PIG) (PIG) (SGU) (DLTG) (DLTG)
                 (SGU) (DLTU) (DLTU) (PIU) (PIU) (SGU) (PIG) (PIG)
                 (PIU) (PIU) (DLTG) (DLTG) (PHIU) (PHIU) (SGG)
                 (SGU) (DLTU) (DLTU) (PIG) (PIG) (PIU) (PIU) (SGG)
                 (PIG) (PIG) (SGU) (SGG) (PIU) (PIU) (SGU) (PHIG)
                 (PHIG) (PHIU) (PHIU) (DLTG) (DLTG) (DLTU) (DLTU)
                 (PIG) (PIG) (DLTG) (DLTG) (SGU) (DLTU) (DLTU)
                 (PIU) (PIU) (SGG) (SGG) (PIG) (PIG) (PIU) (PIU)
                 (SGU) (SGG) (SGG) (SGU)
 The electronic state is 1-SGG.
 Alpha  occ. eigenvalues --  -20.67520 -20.67517 -11.51275  -1.47960  -1.42941
 Alpha  occ. eigenvalues --   -0.81099  -0.72305  -0.67761  -0.67761  -0.53998
 Alpha  occ. eigenvalues --   -0.53998
 Alpha virt. eigenvalues --    0.04406   0.07394   0.07394   0.07923   0.13710
 Alpha virt. eigenvalues --    0.13710   0.15988   0.16512   0.16512   0.18962
 Alpha virt. eigenvalues --    0.22183   0.24617   0.24617   0.27828   0.27828
 Alpha virt. eigenvalues --    0.29902   0.37765   0.44513   0.44513   0.48536
 Alpha virt. eigenvalues --    0.48536   0.49502   0.59847   0.65552   0.65552
 Alpha virt. eigenvalues --    0.68540   0.76518   0.76518   0.78405   0.78405
 Alpha virt. eigenvalues --    0.83166   0.89051   0.89051   0.92352   1.03511
 Alpha virt. eigenvalues --    1.03780   1.03780   1.05283   1.05283   1.08211
 Alpha virt. eigenvalues --    1.08211   1.11909   1.22248   1.22248   1.33790
 Alpha virt. eigenvalues --    1.33790   1.36718   1.44903   1.44903   1.49435
 Alpha virt. eigenvalues --    1.57386   1.57386   1.85347   2.02858   2.02858
 Alpha virt. eigenvalues --    2.17006   2.17006   2.23423   2.23423   2.23941
 Alpha virt. eigenvalues --    2.23941   2.28543   2.30589   2.30589   2.34286
 Alpha virt. eigenvalues --    2.40290   2.40290   2.43310   2.53157   2.53157
 Alpha virt. eigenvalues --    2.68867   2.77604   2.77604   2.78486   2.78486
 Alpha virt. eigenvalues --    2.94252   2.97813   2.97813   3.05847   3.05847
 Alpha virt. eigenvalues --    3.29892   3.29892   3.33631   3.33631   3.43777
 Alpha virt. eigenvalues --    3.65571   3.80234   3.80234   3.85582   3.85582
 Alpha virt. eigenvalues --    4.08346   4.08346   4.41792   4.65810   4.65810
 Alpha virt. eigenvalues --    4.87894   5.29891   5.42040   5.42040   6.33850
 Alpha virt. eigenvalues --    6.43687   6.43687   6.52717   6.52717   6.63575
 Alpha virt. eigenvalues --    6.63575   6.83657   6.83657   6.89702   6.89702
 Alpha virt. eigenvalues --    7.04631   7.04631   7.12860   7.13595   7.13595
 Alpha virt. eigenvalues --    7.21334   7.21334   7.22090   7.32527   7.66873
 Alpha virt. eigenvalues --    7.66873   7.80489   7.80489   7.80975  11.95268
 Alpha virt. eigenvalues --   14.21053  17.21176
     Molecular Orbital Coefficients:
                           1         2         3         4         5
                       (SGU)--O  (SGG)--O  (SGG)--O  (SGG)--O  (SGU)--O
     Eigenvalues --   -20.67520 -20.67517 -11.51275  -1.47960  -1.42941
   1 1   C  1S          0.00000   0.00019   0.97942  -0.12572   0.00000
   2        2S          0.00000   0.00188  -0.00692   0.29688   0.00000
   3        3S          0.00000  -0.00045   0.04111   0.07624   0.00000
   4        4S          0.00000   0.00128   0.00136   0.07839   0.00000
   5        5S          0.00000   0.00032   0.00044   0.00181   0.00000
   6        6PX         0.00000   0.00000   0.00000   0.00000   0.00000
   7        6PY         0.00000   0.00000   0.00000   0.00000   0.00000
   8        6PZ         0.00007   0.00000   0.00000   0.00000   0.15377
   9        7PX         0.00000   0.00000   0.00000   0.00000   0.00000
  10        7PY         0.00000   0.00000   0.00000   0.00000   0.00000
  11        7PZ         0.00534   0.00000   0.00000   0.00000   0.13073
  12        8PX         0.00000   0.00000   0.00000   0.00000   0.00000
  13        8PY         0.00000   0.00000   0.00000   0.00000   0.00000
  14        8PZ         0.00248   0.00000   0.00000   0.00000  -0.01105
  15        9PX         0.00000   0.00000   0.00000   0.00000   0.00000
  16        9PY         0.00000   0.00000   0.00000   0.00000   0.00000
  17        9PZ         0.00030   0.00000   0.00000   0.00000  -0.00265
  18       10D 0        0.00000   0.00073   0.00134   0.02695   0.00000
  19       10D+1        0.00000   0.00000   0.00000   0.00000   0.00000
  20       10D-1        0.00000   0.00000   0.00000   0.00000   0.00000
  21       10D+2        0.00000  -0.00000   0.00000  -0.00000   0.00000
  22       10D-2        0.00000   0.00000   0.00000   0.00000   0.00000
  23       11D 0        0.00000   0.00210  -0.00165   0.02718   0.00000
  24       11D+1        0.00000   0.00000   0.00000   0.00000   0.00000
  25       11D-1        0.00000   0.00000   0.00000   0.00000   0.00000
  26       11D+2        0.00000   0.00000  -0.00000  -0.00000   0.00000
  27       11D-2        0.00000   0.00000   0.00000   0.00000   0.00000
  28       12D 0        0.00000  -0.00011  -0.00034  -0.01546   0.00000
  29       12D+1        0.00000   0.00000   0.00000   0.00000   0.00000
  30       12D-1        0.00000   0.00000   0.00000   0.00000   0.00000
  31       12D+2        0.00000  -0.00000  -0.00000  -0.00000   0.00000
  32       12D-2        0.00000   0.00000   0.00000   0.00000   0.00000
  33       13F 0        0.00061   0.00000   0.00000   0.00000   0.00472
  34       13F+1        0.00000   0.00000   0.00000   0.00000   0.00000
  35       13F-1        0.00000   0.00000   0.00000   0.00000   0.00000
  36       13F+2        0.00000   0.00000   0.00000   0.00000   0.00000
  37       13F-2        0.00000   0.00000   0.00000   0.00000   0.00000
  38       13F+3        0.00000   0.00000   0.00000   0.00000   0.00000
  39       13F-3        0.00000   0.00000   0.00000   0.00000   0.00000
  40       14F 0        0.00121   0.00000   0.00000   0.00000   0.00229
  41       14F+1        0.00000   0.00000   0.00000   0.00000   0.00000
  42       14F-1        0.00000   0.00000   0.00000   0.00000   0.00000
  43       14F+2        0.00000   0.00000   0.00000   0.00000   0.00000
  44       14F-2        0.00000   0.00000   0.00000   0.00000   0.00000
  45       14F+3        0.00000   0.00000   0.00000   0.00000   0.00000
  46       14F-3        0.00000   0.00000   0.00000   0.00000   0.00000
  47 2   O  1S          0.69065   0.69071  -0.00018  -0.12964  -0.14165
  48        2S         -0.00716  -0.00682   0.00087   0.31570   0.34102
  49        3S          0.03066   0.03064   0.00021   0.08602   0.09254
  50        4S         -0.00092   0.00103   0.00097   0.15508   0.21339
  51        5S         -0.00159  -0.00048  -0.00092  -0.01332   0.01705
  52        6PX         0.00000   0.00000   0.00000   0.00000   0.00000
  53        6PY         0.00000   0.00000   0.00000   0.00000   0.00000
  54        6PZ        -0.00160  -0.00157  -0.00032  -0.04831  -0.04405
  55        7PX         0.00000   0.00000   0.00000   0.00000   0.00000
  56        7PY         0.00000   0.00000   0.00000   0.00000   0.00000
  57        7PZ         0.00233   0.00184  -0.00051  -0.06553  -0.06505
  58        8PX         0.00000   0.00000   0.00000   0.00000   0.00000
  59        8PY         0.00000   0.00000   0.00000   0.00000   0.00000
  60        8PZ         0.00070  -0.00018   0.00045   0.00819  -0.02977
  61        9PX         0.00000   0.00000   0.00000   0.00000   0.00000
  62        9PY         0.00000   0.00000   0.00000   0.00000   0.00000
  63        9PZ         0.00020   0.00007   0.00038   0.01025  -0.00072
  64       10D 0        0.00007   0.00008   0.00008   0.00530   0.00474
  65       10D+1        0.00000   0.00000   0.00000   0.00000   0.00000
  66       10D-1        0.00000   0.00000   0.00000   0.00000   0.00000
  67       10D+2       -0.00000  -0.00000   0.00000   0.00000  -0.00000
  68       10D-2        0.00000   0.00000   0.00000   0.00000   0.00000
  69       11D 0       -0.00089  -0.00062  -0.00051   0.01094   0.01874
  70       11D+1        0.00000   0.00000   0.00000   0.00000   0.00000
  71       11D-1        0.00000   0.00000   0.00000   0.00000   0.00000
  72       11D+2       -0.00000  -0.00000  -0.00000  -0.00000  -0.00000
  73       11D-2        0.00000   0.00000   0.00000   0.00000   0.00000
  74       12D 0       -0.00005   0.00035  -0.00046  -0.01074   0.00217
  75       12D+1        0.00000   0.00000   0.00000   0.00000   0.00000
  76       12D-1        0.00000   0.00000   0.00000   0.00000   0.00000
  77       12D+2       -0.00000  -0.00000   0.00000   0.00000  -0.00000
  78       12D-2        0.00000   0.00000   0.00000   0.00000   0.00000
  79       13F 0        0.00006   0.00011  -0.00002  -0.00265  -0.00348
  80       13F+1        0.00000   0.00000   0.00000   0.00000   0.00000
  81       13F-1        0.00000   0.00000   0.00000   0.00000   0.00000
  82       13F+2       -0.00000   0.00000   0.00000   0.00000  -0.00000
  83       13F-2        0.00000   0.00000   0.00000   0.00000   0.00000
  84       13F+3        0.00000   0.00000   0.00000   0.00000   0.00000
  85       13F-3        0.00000   0.00000   0.00000   0.00000   0.00000
  86       14F 0        0.00020   0.00001   0.00058   0.00061  -0.00456
  87       14F+1        0.00000   0.00000   0.00000   0.00000   0.00000
  88       14F-1        0.00000   0.00000   0.00000   0.00000   0.00000
  89       14F+2        0.00000   0.00000  -0.00000  -0.00000   0.00000
  90       14F-2        0.00000   0.00000   0.00000   0.00000   0.00000
  91       14F+3        0.00000   0.00000   0.00000   0.00000   0.00000
  92       14F-3        0.00000   0.00000   0.00000   0.00000   0.00000
  93 3   O  1S         -0.69065   0.69071  -0.00018  -0.12964   0.14165
  94        2S          0.00716  -0.00682   0.00087   0.31570  -0.34102
  95        3S         -0.03066   0.03064   0.00021   0.08602  -0.09254
  96        4S          0.00092   0.00103   0.00097   0.15508  -0.21339
  97        5S          0.00159  -0.00048  -0.00092  -0.01332  -0.01705
  98        6PX         0.00000   0.00000   0.00000   0.00000   0.00000
  99        6PY         0.00000   0.00000   0.00000   0.00000   0.00000
 100        6PZ        -0.00160   0.00157   0.00032   0.04831  -0.04405
 101        7PX         0.00000   0.00000   0.00000   0.00000   0.00000
 102        7PY         0.00000   0.00000   0.00000   0.00000   0.00000
 103        7PZ         0.00233  -0.00184   0.00051   0.06553  -0.06505
 104        8PX         0.00000   0.00000   0.00000   0.00000   0.00000
 105        8PY         0.00000   0.00000   0.00000   0.00000   0.00000
 106        8PZ         0.00070   0.00018  -0.00045  -0.00819  -0.02977
 107        9PX         0.00000   0.00000   0.00000   0.00000   0.00000
 108        9PY         0.00000   0.00000   0.00000   0.00000   0.00000
 109        9PZ         0.00020  -0.00007  -0.00038  -0.01025  -0.00072
 110       10D 0       -0.00007   0.00008   0.00008   0.00530  -0.00474
 111       10D+1        0.00000   0.00000   0.00000   0.00000   0.00000
 112       10D-1        0.00000   0.00000   0.00000   0.00000   0.00000
 113       10D+2        0.00000  -0.00000   0.00000   0.00000   0.00000
 114       10D-2        0.00000   0.00000   0.00000   0.00000   0.00000
 115       11D 0        0.00089  -0.00062  -0.00051   0.01094  -0.01874
 116       11D+1        0.00000   0.00000   0.00000   0.00000   0.00000
 117       11D-1        0.00000   0.00000   0.00000   0.00000   0.00000
 118       11D+2        0.00000  -0.00000  -0.00000  -0.00000   0.00000
 119       11D-2        0.00000   0.00000   0.00000   0.00000   0.00000
 120       12D 0        0.00005   0.00035  -0.00046  -0.01074  -0.00217
 121       12D+1        0.00000   0.00000   0.00000   0.00000   0.00000
 122       12D-1        0.00000   0.00000   0.00000   0.00000   0.00000
 123       12D+2        0.00000  -0.00000   0.00000   0.00000   0.00000
 124       12D-2        0.00000   0.00000   0.00000   0.00000   0.00000
 125       13F 0        0.00006  -0.00011   0.00002   0.00265  -0.00348
 126       13F+1        0.00000   0.00000   0.00000   0.00000   0.00000
 127       13F-1        0.00000   0.00000   0.00000   0.00000   0.00000
 128       13F+2       -0.00000  -0.00000  -0.00000  -0.00000  -0.00000
 129       13F-2        0.00000   0.00000   0.00000   0.00000   0.00000
 130       13F+3        0.00000   0.00000   0.00000   0.00000   0.00000
 131       13F-3        0.00000   0.00000   0.00000   0.00000   0.00000
 132       14F 0        0.00020  -0.00001  -0.00058  -0.00061  -0.00456
 133       14F+1        0.00000   0.00000   0.00000   0.00000   0.00000
 134       14F-1        0.00000   0.00000   0.00000   0.00000   0.00000
 135       14F+2        0.00000  -0.00000   0.00000   0.00000   0.00000
 136       14F-2        0.00000   0.00000   0.00000   0.00000   0.00000
 137       14F+3        0.00000   0.00000   0.00000   0.00000   0.00000
 138       14F-3        0.00000   0.00000   0.00000   0.00000   0.00000
                           6         7         8         9        10
                       (SGG)--O  (SGU)--O  (PIU)--O  (PIU)--O  (PIG)--O
     Eigenvalues --    -0.81099  -0.72305  -0.67761  -0.67761  -0.53998
   1 1   C  1S         -0.13689   0.00000   0.00000   0.00000   0.00000
   2        2S          0.36334   0.00000   0.00000   0.00000   0.00000
   3        3S          0.09811   0.00000   0.00000   0.00000   0.00000
   4        4S          0.15847   0.00000   0.00000   0.00000   0.00000
   5        5S          0.01224   0.00000   0.00000   0.00000   0.00000
   6        6PX         0.00000   0.00000   0.18074   0.00000   0.00000
   7        6PY         0.00000   0.00000   0.00000   0.18074   0.00000
   8        6PZ         0.00000  -0.20875   0.00000   0.00000   0.00000
   9        7PX         0.00000   0.00000   0.24804   0.00000   0.00000
  10        7PY         0.00000   0.00000   0.00000   0.24804   0.00000
  11        7PZ         0.00000  -0.25309   0.00000   0.00000   0.00000
  12        8PX         0.00000   0.00000   0.08552   0.00000   0.00000
  13        8PY         0.00000   0.00000   0.00000   0.08552   0.00000
  14        8PZ         0.00000  -0.01103   0.00000   0.00000   0.00000
  15        9PX         0.00000   0.00000   0.00466   0.00000   0.00000
  16        9PY         0.00000   0.00000   0.00000   0.00466   0.00000
  17        9PZ         0.00000   0.00443   0.00000   0.00000   0.00000
  18       10D 0        0.01244   0.00000   0.00000   0.00000   0.00000
  19       10D+1        0.00000   0.00000   0.00000   0.00000   0.03353
  20       10D-1        0.00000   0.00000   0.00000   0.00000   0.00000
  21       10D+2       -0.00000   0.00000   0.00000   0.00000   0.00000
  22       10D-2        0.00000   0.00000   0.00000   0.00000   0.00000
  23       11D 0        0.01275   0.00000   0.00000   0.00000   0.00000
  24       11D+1        0.00000   0.00000   0.00000   0.00000   0.05845
  25       11D-1        0.00000   0.00000   0.00000   0.00000   0.00000
  26       11D+2        0.00000   0.00000   0.00000   0.00000   0.00000
  27       11D-2        0.00000   0.00000   0.00000   0.00000   0.00000
  28       12D 0        0.00500   0.00000   0.00000   0.00000   0.00000
  29       12D+1        0.00000   0.00000   0.00000   0.00000  -0.00143
  30       12D-1        0.00000   0.00000   0.00000   0.00000   0.00000
  31       12D+2       -0.00000   0.00000   0.00000   0.00000   0.00000
  32       12D-2        0.00000   0.00000   0.00000   0.00000   0.00000
  33       13F 0        0.00000  -0.00964   0.00000   0.00000   0.00000
  34       13F+1        0.00000   0.00000   0.01645   0.00000   0.00000
  35       13F-1        0.00000   0.00000   0.00000   0.01645   0.00000
  36       13F+2        0.00000  -0.00000   0.00000   0.00000   0.00000
  37       13F-2        0.00000   0.00000   0.00000   0.00000   0.00000
  38       13F+3        0.00000   0.00000  -0.00000   0.00000   0.00000
  39       13F-3        0.00000   0.00000   0.00000   0.00000   0.00000
  40       14F 0        0.00000   0.00778   0.00000   0.00000   0.00000
  41       14F+1        0.00000   0.00000   0.01427   0.00000   0.00000
  42       14F-1        0.00000   0.00000   0.00000   0.01427   0.00000
  43       14F+2        0.00000   0.00000   0.00000   0.00000   0.00000
  44       14F-2        0.00000   0.00000   0.00000   0.00000   0.00000
  45       14F+3        0.00000   0.00000  -0.00000   0.00000   0.00000
  46       14F-3        0.00000   0.00000   0.00000   0.00000   0.00000
  47 2   O  1S          0.08202  -0.05743   0.00000   0.00000   0.00000
  48        2S         -0.21472   0.15645   0.00000   0.00000   0.00000
  49        3S         -0.06562   0.04919   0.00000   0.00000   0.00000
  50        4S         -0.24301   0.19036   0.00000   0.00000   0.00000
  51        5S         -0.03572   0.02282   0.00000   0.00000   0.00000
  52        6PX         0.00000   0.00000   0.20467   0.00000   0.25229
  53        6PY         0.00000   0.00000   0.00000   0.20467   0.00000
  54        6PZ        -0.17385   0.21278   0.00000   0.00000   0.00000
  55        7PX         0.00000   0.00000   0.25826   0.00000   0.32391
  56        7PY         0.00000   0.00000   0.00000   0.25826   0.00000
  57        7PZ        -0.21390   0.26071   0.00000   0.00000   0.00000
  58        8PX         0.00000   0.00000   0.16141   0.00000   0.24339
  59        8PY         0.00000   0.00000   0.00000   0.16141   0.00000
  60        8PZ        -0.09939   0.13252   0.00000   0.00000   0.00000
  61        9PX         0.00000   0.00000   0.00302   0.00000   0.02916
  62        9PY         0.00000   0.00000   0.00000   0.00302   0.00000
  63        9PZ        -0.00010   0.00150   0.00000   0.00000   0.00000
  64       10D 0        0.00782  -0.00935   0.00000   0.00000   0.00000
  65       10D+1        0.00000   0.00000  -0.00773   0.00000  -0.00564
  66       10D-1        0.00000   0.00000   0.00000  -0.00773   0.00000
  67       10D+2        0.00000  -0.00000   0.00000   0.00000   0.00000
  68       10D-2        0.00000   0.00000   0.00000   0.00000   0.00000
  69       11D 0        0.01567  -0.02163   0.00000   0.00000   0.00000
  70       11D+1        0.00000   0.00000  -0.01671   0.00000  -0.01983
  71       11D-1        0.00000   0.00000   0.00000  -0.01671   0.00000
  72       11D+2       -0.00000  -0.00000   0.00000   0.00000   0.00000
  73       11D-2        0.00000   0.00000   0.00000   0.00000   0.00000
  74       12D 0        0.00143  -0.00093   0.00000   0.00000   0.00000
  75       12D+1        0.00000   0.00000  -0.00664   0.00000  -0.01035
  76       12D-1        0.00000   0.00000   0.00000  -0.00664   0.00000
  77       12D+2        0.00000  -0.00000   0.00000   0.00000   0.00000
  78       12D-2        0.00000   0.00000   0.00000   0.00000   0.00000
  79       13F 0       -0.00316   0.00420   0.00000   0.00000   0.00000
  80       13F+1        0.00000   0.00000   0.00379   0.00000   0.00370
  81       13F-1        0.00000   0.00000   0.00000   0.00379   0.00000
  82       13F+2       -0.00000   0.00000   0.00000   0.00000   0.00000
  83       13F-2        0.00000   0.00000   0.00000   0.00000   0.00000
  84       13F+3        0.00000   0.00000  -0.00000   0.00000  -0.00000
  85       13F-3        0.00000   0.00000   0.00000   0.00000   0.00000
  86       14F 0       -0.00130   0.00498   0.00000   0.00000   0.00000
  87       14F+1        0.00000   0.00000   0.00090   0.00000   0.00431
  88       14F-1        0.00000   0.00000   0.00000   0.00090   0.00000
  89       14F+2        0.00000   0.00000   0.00000   0.00000   0.00000
  90       14F-2        0.00000   0.00000   0.00000   0.00000   0.00000
  91       14F+3        0.00000   0.00000   0.00000   0.00000   0.00000
  92       14F-3        0.00000   0.00000   0.00000  -0.00000   0.00000
  93 3   O  1S          0.08202   0.05743   0.00000   0.00000   0.00000
  94        2S         -0.21472  -0.15645   0.00000   0.00000   0.00000
  95        3S         -0.06562  -0.04919   0.00000   0.00000   0.00000
  96        4S         -0.24301  -0.19036   0.00000   0.00000   0.00000
  97        5S         -0.03572  -0.02282   0.00000   0.00000   0.00000
  98        6PX         0.00000   0.00000   0.20467   0.00000  -0.25229
  99        6PY         0.00000   0.00000   0.00000   0.20467   0.00000
 100        6PZ         0.17385   0.21278   0.00000   0.00000   0.00000
 101        7PX         0.00000   0.00000   0.25826   0.00000  -0.32391
 102        7PY         0.00000   0.00000   0.00000   0.25826   0.00000
 103        7PZ         0.21390   0.26071   0.00000   0.00000   0.00000
 104        8PX         0.00000   0.00000   0.16141   0.00000  -0.24339
 105        8PY         0.00000   0.00000   0.00000   0.16141   0.00000
 106        8PZ         0.09939   0.13252   0.00000   0.00000   0.00000
 107        9PX         0.00000   0.00000   0.00302   0.00000  -0.02916
 108        9PY         0.00000   0.00000   0.00000   0.00302   0.00000
 109        9PZ         0.00010   0.00150   0.00000   0.00000   0.00000
 110       10D 0        0.00782   0.00935   0.00000   0.00000   0.00000
 111       10D+1        0.00000   0.00000   0.00773   0.00000  -0.00564
 112       10D-1        0.00000   0.00000   0.00000   0.00773   0.00000
 113       10D+2        0.00000   0.00000   0.00000   0.00000   0.00000
 114       10D-2        0.00000   0.00000   0.00000   0.00000   0.00000
 115       11D 0        0.01567   0.02163   0.00000   0.00000   0.00000
 116       11D+1        0.00000   0.00000   0.01671   0.00000  -0.01983
 117       11D-1        0.00000   0.00000   0.00000   0.01671   0.00000
 118       11D+2       -0.00000   0.00000   0.00000   0.00000   0.00000
 119       11D-2        0.00000   0.00000   0.00000   0.00000   0.00000
 120       12D 0        0.00143   0.00093   0.00000   0.00000   0.00000
 121       12D+1        0.00000   0.00000   0.00664   0.00000  -0.01035
 122       12D-1        0.00000   0.00000   0.00000   0.00664   0.00000
 123       12D+2        0.00000   0.00000   0.00000   0.00000   0.00000
 124       12D-2        0.00000   0.00000   0.00000   0.00000   0.00000
 125       13F 0        0.00316   0.00420   0.00000   0.00000   0.00000
 126       13F+1        0.00000   0.00000   0.00379   0.00000  -0.00370
 127       13F-1        0.00000   0.00000   0.00000   0.00379   0.00000
 128       13F+2        0.00000   0.00000   0.00000   0.00000   0.00000
 129       13F-2        0.00000   0.00000   0.00000   0.00000   0.00000
 130       13F+3        0.00000   0.00000  -0.00000   0.00000   0.00000
 131       13F-3        0.00000   0.00000   0.00000   0.00000   0.00000
 132       14F 0        0.00130   0.00498   0.00000   0.00000   0.00000
 133       14F+1        0.00000   0.00000   0.00090   0.00000  -0.00431
 134       14F-1        0.00000   0.00000   0.00000   0.00090   0.00000
 135       14F+2       -0.00000   0.00000   0.00000   0.00000   0.00000
 136       14F-2        0.00000   0.00000   0.00000   0.00000   0.00000
 137       14F+3        0.00000   0.00000   0.00000   0.00000  -0.00000
 138       14F-3        0.00000   0.00000   0.00000  -0.00000   0.00000
                          11        12        13        14        15
                       (PIG)--O  (SGG)--V  (PIU)--V  (PIU)--V  (SGU)--V
     Eigenvalues --    -0.53998   0.04406   0.07394   0.07394   0.07923
   1 1   C  1S          0.00000  -0.01031   0.00000   0.00000   0.00000
   2        2S          0.00000   0.03552   0.00000   0.00000   0.00000
   3        3S          0.00000  -0.02001   0.00000   0.00000   0.00000
   4        4S          0.00000   2.66970   0.00000   0.00000   0.00000
   5        5S          0.00000   4.46106   0.00000   0.00000   0.00000
   6        6PX         0.00000   0.00000   0.01341   0.00000   0.00000
   7        6PY         0.00000   0.00000   0.00000   0.01341   0.00000
   8        6PZ         0.00000   0.00000   0.00000   0.00000   0.00142
   9        7PX         0.00000   0.00000  -0.01775   0.00000   0.00000
  10        7PY         0.00000   0.00000   0.00000  -0.01775   0.00000
  11        7PZ         0.00000   0.00000   0.00000   0.00000  -0.41406
  12        8PX         0.00000   0.00000  -0.15589   0.00000   0.00000
  13        8PY         0.00000   0.00000   0.00000  -0.15589   0.00000
  14        8PZ         0.00000   0.00000   0.00000   0.00000  -1.69957
  15        9PX         0.00000   0.00000   1.97955   0.00000   0.00000
  16        9PY         0.00000   0.00000   0.00000   1.97955   0.00000
  17        9PZ         0.00000   0.00000   0.00000   0.00000  -2.31170
  18       10D 0        0.00000  -0.02121   0.00000   0.00000   0.00000
  19       10D+1        0.00000   0.00000   0.00000   0.00000   0.00000
  20       10D-1        0.03353   0.00000   0.00000   0.00000   0.00000
  21       10D+2        0.00000   0.00000   0.00000   0.00000   0.00000
  22       10D-2        0.00000   0.00000   0.00000   0.00000   0.00000
  23       11D 0        0.00000   0.17767   0.00000   0.00000   0.00000
  24       11D+1        0.00000   0.00000   0.00000   0.00000   0.00000
  25       11D-1        0.05845   0.00000   0.00000   0.00000   0.00000
  26       11D+2        0.00000  -0.00000   0.00000   0.00000   0.00000
  27       11D-2        0.00000   0.00000   0.00000   0.00000   0.00000
  28       12D 0        0.00000   0.44588   0.00000   0.00000   0.00000
  29       12D+1        0.00000   0.00000   0.00000   0.00000   0.00000
  30       12D-1       -0.00143   0.00000   0.00000   0.00000   0.00000
  31       12D+2        0.00000  -0.00000   0.00000   0.00000   0.00000
  32       12D-2        0.00000   0.00000   0.00000   0.00000   0.00000
  33       13F 0        0.00000   0.00000   0.00000   0.00000  -0.02863
  34       13F+1        0.00000   0.00000  -0.00405   0.00000   0.00000
  35       13F-1        0.00000   0.00000   0.00000  -0.00405   0.00000
  36       13F+2        0.00000   0.00000   0.00000   0.00000   0.00000
  37       13F-2        0.00000   0.00000   0.00000   0.00000   0.00000
  38       13F+3        0.00000   0.00000   0.00000   0.00000   0.00000
  39       13F-3        0.00000   0.00000   0.00000  -0.00000   0.00000
  40       14F 0        0.00000   0.00000   0.00000   0.00000  -0.03105
  41       14F+1        0.00000   0.00000  -0.08499   0.00000   0.00000
  42       14F-1        0.00000   0.00000   0.00000  -0.08499   0.00000
  43       14F+2        0.00000   0.00000   0.00000   0.00000  -0.00000
  44       14F-2        0.00000   0.00000   0.00000   0.00000   0.00000
  45       14F+3        0.00000   0.00000  -0.00000   0.00000   0.00000
  46       14F-3        0.00000   0.00000   0.00000   0.00000   0.00000
  47 2   O  1S          0.00000   0.02980   0.00000   0.00000  -0.01610
  48        2S          0.00000  -0.06581   0.00000   0.00000   0.02664
  49        3S          0.00000  -0.02006   0.00000   0.00000   0.00163
  50        4S          0.00000  -0.67944   0.00000   0.00000   0.66339
  51        5S          0.00000  -2.77895   0.00000   0.00000   3.09946
  52        6PX         0.00000   0.00000  -0.04846   0.00000   0.00000
  53        6PY         0.25229   0.00000   0.00000  -0.04846   0.00000
  54        6PZ         0.00000   0.03242   0.00000   0.00000   0.02008
  55        7PX         0.00000   0.00000  -0.06229   0.00000   0.00000
  56        7PY         0.32391   0.00000   0.00000  -0.06229   0.00000
  57        7PZ         0.00000   0.07038   0.00000   0.00000  -0.01594
  58        8PX         0.00000   0.00000   0.10052   0.00000   0.00000
  59        8PY         0.24339   0.00000   0.00000   0.10052   0.00000
  60        8PZ         0.00000   0.42300   0.00000   0.00000  -0.49407
  61        9PX         0.00000   0.00000  -0.64598   0.00000   0.00000
  62        9PY         0.02916   0.00000   0.00000  -0.64598   0.00000
  63        9PZ         0.00000   0.57104   0.00000   0.00000  -0.42526
  64       10D 0        0.00000  -0.00070   0.00000   0.00000  -0.00330
  65       10D+1        0.00000   0.00000   0.00208   0.00000   0.00000
  66       10D-1       -0.00564   0.00000   0.00000   0.00208   0.00000
  67       10D+2        0.00000  -0.00000   0.00000   0.00000  -0.00000
  68       10D-2        0.00000   0.00000   0.00000   0.00000   0.00000
  69       11D 0        0.00000  -0.01770   0.00000   0.00000   0.05112
  70       11D+1        0.00000   0.00000  -0.01503   0.00000   0.00000
  71       11D-1       -0.01983   0.00000   0.00000  -0.01503   0.00000
  72       11D+2        0.00000  -0.00000   0.00000   0.00000   0.00000
  73       11D-2        0.00000   0.00000   0.00000   0.00000   0.00000
  74       12D 0        0.00000  -0.06235   0.00000   0.00000   0.07646
  75       12D+1        0.00000   0.00000  -0.02696   0.00000   0.00000
  76       12D-1       -0.01035   0.00000   0.00000  -0.02696   0.00000
  77       12D+2        0.00000   0.00000   0.00000   0.00000  -0.00000
  78       12D-2        0.00000   0.00000   0.00000   0.00000   0.00000
  79       13F 0        0.00000   0.00142   0.00000   0.00000  -0.00278
  80       13F+1        0.00000   0.00000  -0.00006   0.00000   0.00000
  81       13F-1        0.00370   0.00000   0.00000  -0.00006   0.00000
  82       13F+2        0.00000   0.00000   0.00000   0.00000   0.00000
  83       13F-2        0.00000   0.00000   0.00000   0.00000   0.00000
  84       13F+3        0.00000   0.00000  -0.00000   0.00000   0.00000
  85       13F-3        0.00000   0.00000   0.00000   0.00000   0.00000
  86       14F 0        0.00000  -0.00256   0.00000   0.00000  -0.01850
  87       14F+1        0.00000   0.00000   0.00306   0.00000   0.00000
  88       14F-1        0.00431   0.00000   0.00000   0.00306   0.00000
  89       14F+2        0.00000  -0.00000   0.00000   0.00000  -0.00000
  90       14F-2        0.00000   0.00000   0.00000   0.00000   0.00000
  91       14F+3        0.00000   0.00000   0.00000   0.00000   0.00000
  92       14F-3        0.00000   0.00000   0.00000  -0.00000   0.00000
  93 3   O  1S          0.00000   0.02980   0.00000   0.00000   0.01610
  94        2S          0.00000  -0.06581   0.00000   0.00000  -0.02664
  95        3S          0.00000  -0.02006   0.00000   0.00000  -0.00163
  96        4S          0.00000  -0.67944   0.00000   0.00000  -0.66339
  97        5S          0.00000  -2.77895   0.00000   0.00000  -3.09946
  98        6PX         0.00000   0.00000  -0.04846   0.00000   0.00000
  99        6PY        -0.25229   0.00000   0.00000  -0.04846   0.00000
 100        6PZ         0.00000  -0.03242   0.00000   0.00000   0.02008
 101        7PX         0.00000   0.00000  -0.06229   0.00000   0.00000
 102        7PY        -0.32391   0.00000   0.00000  -0.06229   0.00000
 103        7PZ         0.00000  -0.07038   0.00000   0.00000  -0.01594
 104        8PX         0.00000   0.00000   0.10052   0.00000   0.00000
 105        8PY        -0.24339   0.00000   0.00000   0.10052   0.00000
 106        8PZ         0.00000  -0.42300   0.00000   0.00000  -0.49407
 107        9PX         0.00000   0.00000  -0.64598   0.00000   0.00000
 108        9PY        -0.02916   0.00000   0.00000  -0.64598   0.00000
 109        9PZ         0.00000  -0.57104   0.00000   0.00000  -0.42526
 110       10D 0        0.00000  -0.00070   0.00000   0.00000   0.00330
 111       10D+1        0.00000   0.00000  -0.00208   0.00000   0.00000
 112       10D-1       -0.00564   0.00000   0.00000  -0.00208   0.00000
 113       10D+2        0.00000  -0.00000   0.00000   0.00000   0.00000
 114       10D-2        0.00000   0.00000   0.00000   0.00000   0.00000
 115       11D 0        0.00000  -0.01770   0.00000   0.00000  -0.05112
 116       11D+1        0.00000   0.00000   0.01503   0.00000   0.00000
 117       11D-1       -0.01983   0.00000   0.00000   0.01503   0.00000
 118       11D+2        0.00000  -0.00000   0.00000   0.00000  -0.00000
 119       11D-2        0.00000   0.00000   0.00000   0.00000   0.00000
 120       12D 0        0.00000  -0.06235   0.00000   0.00000  -0.07646
 121       12D+1        0.00000   0.00000   0.02696   0.00000   0.00000
 122       12D-1       -0.01035   0.00000   0.00000   0.02696   0.00000
 123       12D+2        0.00000   0.00000   0.00000   0.00000   0.00000
 124       12D-2        0.00000   0.00000   0.00000   0.00000   0.00000
 125       13F 0        0.00000  -0.00142   0.00000   0.00000  -0.00278
 126       13F+1        0.00000   0.00000  -0.00006   0.00000   0.00000
 127       13F-1       -0.00370   0.00000   0.00000  -0.00006   0.00000
 128       13F+2        0.00000  -0.00000   0.00000   0.00000   0.00000
 129       13F-2        0.00000   0.00000   0.00000   0.00000   0.00000
 130       13F+3        0.00000   0.00000  -0.00000   0.00000   0.00000
 131       13F-3       -0.00000   0.00000   0.00000   0.00000   0.00000
 132       14F 0        0.00000   0.00256   0.00000   0.00000  -0.01850
 133       14F+1        0.00000   0.00000   0.00306   0.00000   0.00000
 134       14F-1       -0.00431   0.00000   0.00000   0.00306   0.00000
 135       14F+2        0.00000   0.00000   0.00000   0.00000  -0.00000
 136       14F-2        0.00000   0.00000   0.00000   0.00000   0.00000
 137       14F+3        0.00000   0.00000   0.00000   0.00000   0.00000
 138       14F-3       -0.00000   0.00000   0.00000  -0.00000   0.00000
                          16        17        18        19        20
                       (PIU)--V  (PIU)--V  (SGG)--V  (PIG)--V  (PIG)--V
     Eigenvalues --     0.13710   0.13710   0.15988   0.16512   0.16512
   1 1   C  1S          0.00000   0.00000   0.00266   0.00000   0.00000
   2        2S          0.00000   0.00000   0.13441   0.00000   0.00000
   3        3S          0.00000   0.00000   0.06922   0.00000   0.00000
   4        4S          0.00000   0.00000   2.86256   0.00000   0.00000
   5        5S          0.00000   0.00000   0.68152   0.00000   0.00000
   6        6PX         0.29305   0.00000   0.00000   0.00000   0.00000
   7        6PY         0.00000   0.29305   0.00000   0.00000   0.00000
   8        6PZ         0.00000   0.00000   0.00000   0.00000   0.00000
   9        7PX         0.48088   0.00000   0.00000   0.00000   0.00000
  10        7PY         0.00000   0.48088   0.00000   0.00000   0.00000
  11        7PZ         0.00000   0.00000   0.00000   0.00000   0.00000
  12        8PX         1.10173   0.00000   0.00000   0.00000   0.00000
  13        8PY         0.00000   1.10173   0.00000   0.00000   0.00000
  14        8PZ         0.00000   0.00000   0.00000   0.00000   0.00000
  15        9PX         0.01870   0.00000   0.00000   0.00000   0.00000
  16        9PY         0.00000   0.01870   0.00000   0.00000   0.00000
  17        9PZ         0.00000   0.00000   0.00000   0.00000   0.00000
  18       10D 0        0.00000   0.00000   0.00169   0.00000   0.00000
  19       10D+1        0.00000   0.00000   0.00000  -0.00332   0.00000
  20       10D-1        0.00000   0.00000   0.00000   0.00000  -0.00332
  21       10D+2        0.00000   0.00000  -0.00000   0.00000   0.00000
  22       10D-2        0.00000   0.00000   0.00000   0.00000   0.00000
  23       11D 0        0.00000   0.00000   0.09457   0.00000   0.00000
  24       11D+1        0.00000   0.00000   0.00000  -0.37075   0.00000
  25       11D-1        0.00000   0.00000   0.00000   0.00000  -0.37075
  26       11D+2        0.00000   0.00000   0.00000   0.00000   0.00000
  27       11D-2        0.00000   0.00000   0.00000   0.00000   0.00000
  28       12D 0        0.00000   0.00000  -0.62651   0.00000   0.00000
  29       12D+1        0.00000   0.00000   0.00000  -1.32343   0.00000
  30       12D-1        0.00000   0.00000   0.00000   0.00000  -1.32343
  31       12D+2        0.00000   0.00000   0.00000   0.00000   0.00000
  32       12D-2        0.00000   0.00000   0.00000   0.00000   0.00000
  33       13F 0        0.00000   0.00000   0.00000   0.00000   0.00000
  34       13F+1       -0.00501   0.00000   0.00000   0.00000   0.00000
  35       13F-1        0.00000  -0.00501   0.00000   0.00000   0.00000
  36       13F+2        0.00000   0.00000   0.00000   0.00000   0.00000
  37       13F-2        0.00000   0.00000   0.00000   0.00000   0.00000
  38       13F+3        0.00000   0.00000   0.00000   0.00000   0.00000
  39       13F-3        0.00000  -0.00000   0.00000   0.00000   0.00000
  40       14F 0        0.00000   0.00000   0.00000   0.00000   0.00000
  41       14F+1        0.08620   0.00000   0.00000   0.00000   0.00000
  42       14F-1        0.00000   0.08620   0.00000   0.00000   0.00000
  43       14F+2        0.00000   0.00000   0.00000   0.00000   0.00000
  44       14F-2        0.00000   0.00000   0.00000   0.00000   0.00000
  45       14F+3       -0.00000   0.00000   0.00000   0.00000   0.00000
  46       14F-3        0.00000   0.00000   0.00000   0.00000   0.00000
  47 2   O  1S          0.00000   0.00000  -0.00398   0.00000   0.00000
  48        2S          0.00000   0.00000   0.00930   0.00000   0.00000
  49        3S          0.00000   0.00000   0.00238   0.00000   0.00000
  50        4S          0.00000   0.00000   0.05366   0.00000   0.00000
  51        5S          0.00000   0.00000  -1.13727   0.00000   0.00000
  52        6PX        -0.16198   0.00000   0.00000  -0.03885   0.00000
  53        6PY         0.00000  -0.16198   0.00000   0.00000  -0.03885
  54        6PZ         0.00000   0.00000  -0.04452   0.00000   0.00000
  55        7PX        -0.20859   0.00000   0.00000  -0.07543   0.00000
  56        7PY         0.00000  -0.20859   0.00000   0.00000  -0.07543
  57        7PZ         0.00000   0.00000  -0.08137   0.00000   0.00000
  58        8PX        -0.47596   0.00000   0.00000   0.49374   0.00000
  59        8PY         0.00000  -0.47596   0.00000   0.00000   0.49374
  60        8PZ         0.00000   0.00000   0.31870   0.00000   0.00000
  61        9PX        -0.33738   0.00000   0.00000   1.87893   0.00000
  62        9PY         0.00000  -0.33738   0.00000   0.00000   1.87893
  63        9PZ         0.00000   0.00000   1.59259   0.00000   0.00000
  64       10D 0        0.00000   0.00000   0.00053   0.00000   0.00000
  65       10D+1       -0.00815   0.00000   0.00000   0.00290   0.00000
  66       10D-1        0.00000  -0.00815   0.00000   0.00000   0.00290
  67       10D+2        0.00000   0.00000  -0.00000   0.00000   0.00000
  68       10D-2        0.00000   0.00000   0.00000   0.00000   0.00000
  69       11D 0        0.00000   0.00000   0.02863   0.00000   0.00000
  70       11D+1       -0.00771   0.00000   0.00000  -0.00662   0.00000
  71       11D-1        0.00000  -0.00771   0.00000   0.00000  -0.00662
  72       11D+2        0.00000   0.00000   0.00000   0.00000   0.00000
  73       11D-2        0.00000   0.00000   0.00000   0.00000   0.00000
  74       12D 0        0.00000   0.00000  -0.22967   0.00000   0.00000
  75       12D+1        0.07027   0.00000   0.00000  -0.35092   0.00000
  76       12D-1        0.00000   0.07027   0.00000   0.00000  -0.35092
  77       12D+2        0.00000   0.00000   0.00000   0.00000   0.00000
  78       12D-2        0.00000   0.00000   0.00000   0.00000   0.00000
  79       13F 0        0.00000   0.00000  -0.00377   0.00000   0.00000
  80       13F+1        0.00333   0.00000   0.00000  -0.00764   0.00000
  81       13F-1        0.00000   0.00333   0.00000   0.00000  -0.00764
  82       13F+2        0.00000   0.00000  -0.00000   0.00000   0.00000
  83       13F-2        0.00000   0.00000   0.00000   0.00000   0.00000
  84       13F+3       -0.00000   0.00000   0.00000  -0.00000   0.00000
  85       13F-3        0.00000  -0.00000   0.00000   0.00000   0.00000
  86       14F 0        0.00000   0.00000   0.01167   0.00000   0.00000
  87       14F+1       -0.00757   0.00000   0.00000   0.05722   0.00000
  88       14F-1        0.00000  -0.00757   0.00000   0.00000   0.05722
  89       14F+2        0.00000   0.00000   0.00000   0.00000   0.00000
  90       14F-2        0.00000   0.00000   0.00000   0.00000   0.00000
  91       14F+3       -0.00000   0.00000   0.00000   0.00000   0.00000
  92       14F-3        0.00000   0.00000   0.00000   0.00000  -0.00000
  93 3   O  1S          0.00000   0.00000  -0.00398   0.00000   0.00000
  94        2S          0.00000   0.00000   0.00930   0.00000   0.00000
  95        3S          0.00000   0.00000   0.00238   0.00000   0.00000
  96        4S          0.00000   0.00000   0.05366   0.00000   0.00000
  97        5S          0.00000   0.00000  -1.13727   0.00000   0.00000
  98        6PX        -0.16198   0.00000   0.00000   0.03885   0.00000
  99        6PY         0.00000  -0.16198   0.00000   0.00000   0.03885
 100        6PZ         0.00000   0.00000   0.04452   0.00000   0.00000
 101        7PX        -0.20859   0.00000   0.00000   0.07543   0.00000
 102        7PY         0.00000  -0.20859   0.00000   0.00000   0.07543
 103        7PZ         0.00000   0.00000   0.08137   0.00000   0.00000
 104        8PX        -0.47596   0.00000   0.00000  -0.49374   0.00000
 105        8PY         0.00000  -0.47596   0.00000   0.00000  -0.49374
 106        8PZ         0.00000   0.00000  -0.31870   0.00000   0.00000
 107        9PX        -0.33738   0.00000   0.00000  -1.87893   0.00000
 108        9PY         0.00000  -0.33738   0.00000   0.00000  -1.87893
 109        9PZ         0.00000   0.00000  -1.59259   0.00000   0.00000
 110       10D 0        0.00000   0.00000   0.00053   0.00000   0.00000
 111       10D+1        0.00815   0.00000   0.00000   0.00290   0.00000
 112       10D-1        0.00000   0.00815   0.00000   0.00000   0.00290
 113       10D+2        0.00000   0.00000  -0.00000   0.00000   0.00000
 114       10D-2        0.00000   0.00000   0.00000   0.00000   0.00000
 115       11D 0        0.00000   0.00000   0.02863   0.00000   0.00000
 116       11D+1        0.00771   0.00000   0.00000  -0.00662   0.00000
 117       11D-1        0.00000   0.00771   0.00000   0.00000  -0.00662
 118       11D+2        0.00000   0.00000   0.00000   0.00000   0.00000
 119       11D-2        0.00000   0.00000   0.00000   0.00000   0.00000
 120       12D 0        0.00000   0.00000  -0.22967   0.00000   0.00000
 121       12D+1       -0.07027   0.00000   0.00000  -0.35092   0.00000
 122       12D-1        0.00000  -0.07027   0.00000   0.00000  -0.35092
 123       12D+2        0.00000   0.00000   0.00000   0.00000   0.00000
 124       12D-2        0.00000   0.00000   0.00000   0.00000   0.00000
 125       13F 0        0.00000   0.00000   0.00377   0.00000   0.00000
 126       13F+1        0.00333   0.00000   0.00000   0.00764   0.00000
 127       13F-1        0.00000   0.00333   0.00000   0.00000   0.00764
 128       13F+2        0.00000   0.00000   0.00000   0.00000   0.00000
 129       13F-2        0.00000   0.00000   0.00000   0.00000   0.00000
 130       13F+3       -0.00000   0.00000   0.00000   0.00000   0.00000
 131       13F-3        0.00000  -0.00000   0.00000   0.00000  -0.00000
 132       14F 0        0.00000   0.00000  -0.01167   0.00000   0.00000
 133       14F+1       -0.00757   0.00000   0.00000  -0.05722   0.00000
 134       14F-1        0.00000  -0.00757   0.00000   0.00000  -0.05722
 135       14F+2        0.00000   0.00000  -0.00000   0.00000   0.00000
 136       14F-2        0.00000   0.00000   0.00000   0.00000   0.00000
 137       14F+3       -0.00000   0.00000   0.00000  -0.00000   0.00000
 138       14F-3        0.00000   0.00000   0.00000   0.00000   0.00000
                          21        22        23        24        25
                       (SGG)--V  (SGU)--V  (PIU)--V  (PIU)--V  (DLTG)--
     Eigenvalues --     0.18962   0.22183   0.24617   0.24617   0.27828
   1 1   C  1S          0.04806   0.00000   0.00000   0.00000   0.00000
   2        2S         -0.18642   0.00000   0.00000   0.00000   0.00000
   3        3S         -0.10866   0.00000   0.00000   0.00000   0.00000
   4        4S          4.88739   0.00000   0.00000   0.00000   0.00000
   5        5S          6.58024   0.00000   0.00000   0.00000   0.00000
   6        6PX         0.00000   0.00000   0.00396   0.00000   0.00000
   7        6PY         0.00000   0.00000   0.00000   0.00396   0.00000
   8        6PZ         0.00000  -0.01631   0.00000   0.00000   0.00000
   9        7PX         0.00000   0.00000   0.06641   0.00000   0.00000
  10        7PY         0.00000   0.00000   0.00000   0.06641   0.00000
  11        7PZ         0.00000  -0.23261   0.00000   0.00000   0.00000
  12        8PX         0.00000   0.00000   1.18243   0.00000   0.00000
  13        8PY         0.00000   0.00000   0.00000   1.18243   0.00000
  14        8PZ         0.00000  -3.51247   0.00000   0.00000   0.00000
  15        9PX         0.00000   0.00000   2.76702   0.00000   0.00000
  16        9PY         0.00000   0.00000   0.00000   2.76702   0.00000
  17        9PZ         0.00000   2.29250   0.00000   0.00000   0.00000
  18       10D 0        0.03325   0.00000   0.00000   0.00000   0.00000
  19       10D+1        0.00000   0.00000   0.00000   0.00000   0.00000
  20       10D-1        0.00000   0.00000   0.00000   0.00000   0.00000
  21       10D+2       -0.00000   0.00000   0.00000   0.00000   0.00000
  22       10D-2        0.00000   0.00000   0.00000   0.00000   0.03493
  23       11D 0        0.58966   0.00000   0.00000   0.00000   0.00000
  24       11D+1        0.00000   0.00000   0.00000   0.00000   0.00000
  25       11D-1        0.00000   0.00000   0.00000   0.00000   0.00000
  26       11D+2       -0.00000   0.00000   0.00000   0.00000   0.00000
  27       11D-2        0.00000   0.00000   0.00000   0.00000  -0.06714
  28       12D 0        1.69017   0.00000   0.00000   0.00000   0.00000
  29       12D+1        0.00000   0.00000   0.00000   0.00000   0.00000
  30       12D-1        0.00000   0.00000   0.00000   0.00000   0.00000
  31       12D+2       -0.00000   0.00000   0.00000   0.00000   0.00000
  32       12D-2        0.00000   0.00000   0.00000   0.00000   1.10329
  33       13F 0        0.00000   0.00107   0.00000   0.00000   0.00000
  34       13F+1        0.00000   0.00000   0.00025   0.00000   0.00000
  35       13F-1        0.00000   0.00000   0.00000   0.00025   0.00000
  36       13F+2        0.00000   0.00000   0.00000   0.00000   0.00000
  37       13F-2        0.00000   0.00000   0.00000   0.00000   0.00000
  38       13F+3        0.00000   0.00000   0.00000   0.00000   0.00000
  39       13F-3        0.00000   0.00000   0.00000  -0.00000   0.00000
  40       14F 0        0.00000  -0.25519   0.00000   0.00000   0.00000
  41       14F+1        0.00000   0.00000   0.08942   0.00000   0.00000
  42       14F-1        0.00000   0.00000   0.00000   0.08942   0.00000
  43       14F+2        0.00000   0.00000   0.00000   0.00000   0.00000
  44       14F-2        0.00000   0.00000   0.00000   0.00000   0.00000
  45       14F+3        0.00000   0.00000  -0.00000   0.00000   0.00000
  46       14F-3        0.00000   0.00000   0.00000   0.00000   0.00000
  47 2   O  1S         -0.04357  -0.00174   0.00000   0.00000   0.00000
  48        2S          0.17150  -0.01013   0.00000   0.00000   0.00000
  49        3S          0.05300  -0.00135   0.00000   0.00000   0.00000
  50        4S         -1.25951   1.22498   0.00000   0.00000   0.00000
  51        5S         -5.54724   3.80341   0.00000   0.00000   0.00000
  52        6PX         0.00000   0.00000   0.07981   0.00000   0.00000
  53        6PY         0.00000   0.00000   0.00000   0.07981   0.00000
  54        6PZ        -0.10364   0.01402   0.00000   0.00000   0.00000
  55        7PX         0.00000   0.00000   0.07165   0.00000   0.00000
  56        7PY         0.00000   0.00000   0.00000   0.07165   0.00000
  57        7PZ        -0.06020  -0.03466   0.00000   0.00000   0.00000
  58        8PX         0.00000   0.00000   0.05033   0.00000   0.00000
  59        8PY         0.00000   0.00000   0.00000   0.05033   0.00000
  60        8PZ         0.67560  -0.37716   0.00000   0.00000   0.00000
  61        9PX         0.00000   0.00000  -2.37218   0.00000   0.00000
  62        9PY         0.00000   0.00000   0.00000  -2.37218   0.00000
  63        9PZ         0.32729  -3.52934   0.00000   0.00000   0.00000
  64       10D 0        0.00350  -0.00165   0.00000   0.00000   0.00000
  65       10D+1        0.00000   0.00000   0.00131   0.00000   0.00000
  66       10D-1        0.00000   0.00000   0.00000   0.00131   0.00000
  67       10D+2       -0.00000  -0.00000   0.00000   0.00000   0.00000
  68       10D-2        0.00000   0.00000   0.00000   0.00000   0.00093
  69       11D 0       -0.03923  -0.00411   0.00000   0.00000   0.00000
  70       11D+1        0.00000   0.00000  -0.02649   0.00000   0.00000
  71       11D-1        0.00000   0.00000   0.00000  -0.02649   0.00000
  72       11D+2       -0.00000   0.00000   0.00000   0.00000   0.00000
  73       11D-2        0.00000   0.00000   0.00000   0.00000   0.03359
  74       12D 0       -0.06913   0.07079   0.00000   0.00000   0.00000
  75       12D+1        0.00000   0.00000   0.24645   0.00000   0.00000
  76       12D-1        0.00000   0.00000   0.00000   0.24645   0.00000
  77       12D+2        0.00000  -0.00000   0.00000   0.00000   0.00000
  78       12D-2        0.00000   0.00000   0.00000   0.00000  -0.07946
  79       13F 0        0.00220   0.00164   0.00000   0.00000   0.00000
  80       13F+1        0.00000   0.00000   0.00522   0.00000   0.00000
  81       13F-1        0.00000   0.00000   0.00000   0.00522   0.00000
  82       13F+2        0.00000  -0.00000   0.00000   0.00000   0.00000
  83       13F-2        0.00000   0.00000   0.00000   0.00000  -0.00195
  84       13F+3        0.00000   0.00000  -0.00000   0.00000   0.00000
  85       13F-3        0.00000   0.00000   0.00000   0.00000   0.00000
  86       14F 0       -0.01360  -0.01495   0.00000   0.00000   0.00000
  87       14F+1        0.00000   0.00000  -0.02103   0.00000   0.00000
  88       14F-1        0.00000   0.00000   0.00000  -0.02103   0.00000
  89       14F+2       -0.00000   0.00000   0.00000   0.00000   0.00000
  90       14F-2        0.00000   0.00000   0.00000   0.00000  -0.00236
  91       14F+3        0.00000   0.00000   0.00000   0.00000   0.00000
  92       14F-3        0.00000   0.00000   0.00000  -0.00000   0.00000
  93 3   O  1S         -0.04357   0.00174   0.00000   0.00000   0.00000
  94        2S          0.17150   0.01013   0.00000   0.00000   0.00000
  95        3S          0.05300   0.00135   0.00000   0.00000   0.00000
  96        4S         -1.25951  -1.22498   0.00000   0.00000   0.00000
  97        5S         -5.54724  -3.80341   0.00000   0.00000   0.00000
  98        6PX         0.00000   0.00000   0.07981   0.00000   0.00000
  99        6PY         0.00000   0.00000   0.00000   0.07981   0.00000
 100        6PZ         0.10364   0.01402   0.00000   0.00000   0.00000
 101        7PX         0.00000   0.00000   0.07165   0.00000   0.00000
 102        7PY         0.00000   0.00000   0.00000   0.07165   0.00000
 103        7PZ         0.06020  -0.03466   0.00000   0.00000   0.00000
 104        8PX         0.00000   0.00000   0.05033   0.00000   0.00000
 105        8PY         0.00000   0.00000   0.00000   0.05033   0.00000
 106        8PZ        -0.67560  -0.37716   0.00000   0.00000   0.00000
 107        9PX         0.00000   0.00000  -2.37218   0.00000   0.00000
 108        9PY         0.00000   0.00000   0.00000  -2.37218   0.00000
 109        9PZ        -0.32729  -3.52934   0.00000   0.00000   0.00000
 110       10D 0        0.00350   0.00165   0.00000   0.00000   0.00000
 111       10D+1        0.00000   0.00000  -0.00131   0.00000   0.00000
 112       10D-1        0.00000   0.00000   0.00000  -0.00131   0.00000
 113       10D+2       -0.00000   0.00000   0.00000   0.00000   0.00000
 114       10D-2        0.00000   0.00000   0.00000   0.00000   0.00093
 115       11D 0       -0.03923   0.00411   0.00000   0.00000   0.00000
 116       11D+1        0.00000   0.00000   0.02649   0.00000   0.00000
 117       11D-1        0.00000   0.00000   0.00000   0.02649   0.00000
 118       11D+2       -0.00000  -0.00000   0.00000   0.00000   0.00000
 119       11D-2        0.00000   0.00000   0.00000   0.00000   0.03359
 120       12D 0       -0.06913  -0.07079   0.00000   0.00000   0.00000
 121       12D+1        0.00000   0.00000  -0.24645   0.00000   0.00000
 122       12D-1        0.00000   0.00000   0.00000  -0.24645   0.00000
 123       12D+2        0.00000   0.00000   0.00000   0.00000   0.00000
 124       12D-2        0.00000   0.00000   0.00000   0.00000  -0.07946
 125       13F 0       -0.00220   0.00164   0.00000   0.00000   0.00000
 126       13F+1        0.00000   0.00000   0.00522   0.00000   0.00000
 127       13F-1        0.00000   0.00000   0.00000   0.00522   0.00000
 128       13F+2       -0.00000  -0.00000   0.00000   0.00000   0.00000
 129       13F-2        0.00000   0.00000   0.00000   0.00000   0.00195
 130       13F+3        0.00000   0.00000  -0.00000   0.00000   0.00000
 131       13F-3        0.00000   0.00000   0.00000   0.00000   0.00000
 132       14F 0        0.01360  -0.01495   0.00000   0.00000   0.00000
 133       14F+1        0.00000   0.00000  -0.02103   0.00000   0.00000
 134       14F-1        0.00000   0.00000   0.00000  -0.02103   0.00000
 135       14F+2        0.00000   0.00000   0.00000   0.00000   0.00000
 136       14F-2        0.00000   0.00000   0.00000   0.00000   0.00236
 137       14F+3        0.00000   0.00000   0.00000   0.00000   0.00000
 138       14F-3        0.00000   0.00000   0.00000  -0.00000   0.00000
                          26        27        28        29        30
                       (DLTG)--  (SGU)--V  (SGG)--V  (PIU)--V  (PIU)--V
     Eigenvalues --     0.27828   0.29902   0.37765   0.44513   0.44513
   1 1   C  1S          0.00000   0.00000  -0.10869   0.00000   0.00000
   2        2S         -0.00000   0.00000   0.33859   0.00000   0.00000
   3        3S         -0.00000   0.00000  -0.00022   0.00000   0.00000
   4        4S          0.00000   0.00000   9.61878   0.00000   0.00000
   5        5S          0.00000   0.00000   5.54226   0.00000   0.00000
   6        6PX         0.00000   0.00000   0.00000  -0.25920   0.00000
   7        6PY         0.00000   0.00000   0.00000   0.00000  -0.25920
   8        6PZ         0.00000   0.06465   0.00000   0.00000   0.00000
   9        7PX         0.00000   0.00000   0.00000   0.05805   0.00000
  10        7PY         0.00000   0.00000   0.00000   0.00000   0.05805
  11        7PZ         0.00000  -1.11036   0.00000   0.00000   0.00000
  12        8PX         0.00000   0.00000   0.00000   4.97264   0.00000
  13        8PY         0.00000   0.00000   0.00000   0.00000   4.97264
  14        8PZ         0.00000  -4.31621   0.00000   0.00000   0.00000
  15        9PX         0.00000   0.00000   0.00000   0.46767   0.00000
  16        9PY         0.00000   0.00000   0.00000   0.00000   0.46767
  17        9PZ         0.00000  -2.48501   0.00000   0.00000   0.00000
  18       10D 0        0.00000   0.00000  -0.06410   0.00000   0.00000
  19       10D+1        0.00000   0.00000   0.00000   0.00000   0.00000
  20       10D-1        0.00000   0.00000   0.00000   0.00000   0.00000
  21       10D+2        0.03493   0.00000   0.00000   0.00000   0.00000
  22       10D-2        0.00000   0.00000   0.00000   0.00000   0.00000
  23       11D 0        0.00000   0.00000   0.60924   0.00000   0.00000
  24       11D+1        0.00000   0.00000   0.00000   0.00000   0.00000
  25       11D-1        0.00000   0.00000   0.00000   0.00000   0.00000
  26       11D+2       -0.06714   0.00000  -0.00000   0.00000   0.00000
  27       11D-2        0.00000   0.00000   0.00000   0.00000   0.00000
  28       12D 0        0.00000   0.00000   1.33309   0.00000   0.00000
  29       12D+1        0.00000   0.00000   0.00000   0.00000   0.00000
  30       12D-1        0.00000   0.00000   0.00000   0.00000   0.00000
  31       12D+2        1.10329   0.00000  -0.00000   0.00000   0.00000
  32       12D-2        0.00000   0.00000   0.00000   0.00000   0.00000
  33       13F 0        0.00000  -0.08896   0.00000   0.00000   0.00000
  34       13F+1        0.00000   0.00000   0.00000  -0.00882   0.00000
  35       13F-1        0.00000   0.00000   0.00000   0.00000  -0.00882
  36       13F+2        0.00000   0.00000   0.00000   0.00000   0.00000
  37       13F-2        0.00000   0.00000   0.00000   0.00000   0.00000
  38       13F+3        0.00000   0.00000   0.00000   0.00000   0.00000
  39       13F-3        0.00000   0.00000   0.00000   0.00000  -0.00000
  40       14F 0        0.00000  -0.05699   0.00000   0.00000   0.00000
  41       14F+1        0.00000   0.00000   0.00000   0.94833   0.00000
  42       14F-1        0.00000   0.00000   0.00000   0.00000   0.94833
  43       14F+2        0.00000   0.00000   0.00000   0.00000   0.00000
  44       14F-2        0.00000   0.00000   0.00000   0.00000   0.00000
  45       14F+3        0.00000   0.00000   0.00000  -0.00000   0.00000
  46       14F-3        0.00000   0.00000   0.00000   0.00000   0.00000
  47 2   O  1S         -0.00000   0.03426   0.03016   0.00000   0.00000
  48        2S          0.00000  -0.14925  -0.03906   0.00000   0.00000
  49        3S          0.00000  -0.06942  -0.00736   0.00000   0.00000
  50        4S         -0.00000   1.24653  -2.04592   0.00000   0.00000
  51        5S         -0.00000   7.09646  -6.22805   0.00000   0.00000
  52        6PX         0.00000   0.00000   0.00000   0.01835   0.00000
  53        6PY         0.00000   0.00000   0.00000   0.00000   0.01835
  54        6PZ        -0.00000  -0.02622   0.17437   0.00000   0.00000
  55        7PX         0.00000   0.00000   0.00000  -0.02061   0.00000
  56        7PY         0.00000   0.00000   0.00000   0.00000  -0.02061
  57        7PZ        -0.00000  -0.13315   0.31648   0.00000   0.00000
  58        8PX         0.00000   0.00000   0.00000  -1.85005   0.00000
  59        8PY         0.00000   0.00000   0.00000   0.00000  -1.85005
  60        8PZ         0.00000  -1.54338   1.62042   0.00000   0.00000
  61        9PX         0.00000   0.00000   0.00000  -1.26863   0.00000
  62        9PY         0.00000   0.00000   0.00000   0.00000  -1.26863
  63        9PZ        -0.00000  -0.76480   0.91579   0.00000   0.00000
  64       10D 0        0.00000  -0.00756   0.00533   0.00000   0.00000
  65       10D+1        0.00000   0.00000   0.00000  -0.00363   0.00000
  66       10D-1        0.00000   0.00000   0.00000   0.00000  -0.00363
  67       10D+2        0.00093  -0.00000   0.00000   0.00000   0.00000
  68       10D-2        0.00000   0.00000   0.00000   0.00000   0.00000
  69       11D 0       -0.00000   0.15087  -0.04215   0.00000   0.00000
  70       11D+1        0.00000   0.00000   0.00000   0.09372   0.00000
  71       11D-1        0.00000   0.00000   0.00000   0.00000   0.09372
  72       11D+2        0.03359   0.00000  -0.00000   0.00000   0.00000
  73       11D-2        0.00000   0.00000   0.00000   0.00000   0.00000
  74       12D 0       -0.00000   0.22998  -0.12609   0.00000   0.00000
  75       12D+1        0.00000   0.00000   0.00000   0.94647   0.00000
  76       12D-1        0.00000   0.00000   0.00000   0.00000   0.94647
  77       12D+2       -0.07946  -0.00000   0.00000   0.00000   0.00000
  78       12D-2        0.00000   0.00000   0.00000   0.00000   0.00000
  79       13F 0       -0.00000  -0.00904   0.00390   0.00000   0.00000
  80       13F+1        0.00000   0.00000   0.00000   0.00576   0.00000
  81       13F-1        0.00000   0.00000   0.00000   0.00000   0.00576
  82       13F+2       -0.00195   0.00000   0.00000   0.00000   0.00000
  83       13F-2        0.00000   0.00000   0.00000   0.00000   0.00000
  84       13F+3        0.00000   0.00000   0.00000   0.00000   0.00000
  85       13F-3        0.00000   0.00000   0.00000   0.00000  -0.00000
  86       14F 0        0.00000  -0.05487  -0.01650   0.00000   0.00000
  87       14F+1        0.00000   0.00000   0.00000  -0.08714   0.00000
  88       14F-1        0.00000   0.00000   0.00000   0.00000  -0.08714
  89       14F+2       -0.00236   0.00000  -0.00000   0.00000   0.00000
  90       14F-2        0.00000   0.00000   0.00000   0.00000   0.00000
  91       14F+3        0.00000   0.00000   0.00000  -0.00000   0.00000
  92       14F-3        0.00000   0.00000   0.00000   0.00000   0.00000
  93 3   O  1S         -0.00000  -0.03426   0.03016   0.00000   0.00000
  94        2S          0.00000   0.14925  -0.03906   0.00000   0.00000
  95        3S          0.00000   0.06942  -0.00736   0.00000   0.00000
  96        4S         -0.00000  -1.24653  -2.04592   0.00000   0.00000
  97        5S         -0.00000  -7.09646  -6.22805   0.00000   0.00000
  98        6PX         0.00000   0.00000   0.00000   0.01835   0.00000
  99        6PY         0.00000   0.00000   0.00000   0.00000   0.01835
 100        6PZ         0.00000  -0.02622  -0.17437   0.00000   0.00000
 101        7PX         0.00000   0.00000   0.00000  -0.02061   0.00000
 102        7PY         0.00000   0.00000   0.00000   0.00000  -0.02061
 103        7PZ         0.00000  -0.13315  -0.31648   0.00000   0.00000
 104        8PX         0.00000   0.00000   0.00000  -1.85005   0.00000
 105        8PY         0.00000   0.00000   0.00000   0.00000  -1.85005
 106        8PZ        -0.00000  -1.54338  -1.62042   0.00000   0.00000
 107        9PX         0.00000   0.00000   0.00000  -1.26863   0.00000
 108        9PY         0.00000   0.00000   0.00000   0.00000  -1.26863
 109        9PZ         0.00000  -0.76480  -0.91579   0.00000   0.00000
 110       10D 0        0.00000   0.00756   0.00533   0.00000   0.00000
 111       10D+1        0.00000   0.00000   0.00000   0.00363   0.00000
 112       10D-1        0.00000   0.00000   0.00000   0.00000   0.00363
 113       10D+2        0.00093   0.00000   0.00000   0.00000   0.00000
 114       10D-2        0.00000   0.00000   0.00000   0.00000   0.00000
 115       11D 0       -0.00000  -0.15087  -0.04215   0.00000   0.00000
 116       11D+1        0.00000   0.00000   0.00000  -0.09372   0.00000
 117       11D-1        0.00000   0.00000   0.00000   0.00000  -0.09372
 118       11D+2        0.03359  -0.00000  -0.00000   0.00000   0.00000
 119       11D-2        0.00000   0.00000   0.00000   0.00000   0.00000
 120       12D 0       -0.00000  -0.22998  -0.12609   0.00000   0.00000
 121       12D+1        0.00000   0.00000   0.00000  -0.94647   0.00000
 122       12D-1        0.00000   0.00000   0.00000   0.00000  -0.94647
 123       12D+2       -0.07946   0.00000   0.00000   0.00000   0.00000
 124       12D-2        0.00000   0.00000   0.00000   0.00000   0.00000
 125       13F 0        0.00000  -0.00904  -0.00390   0.00000   0.00000
 126       13F+1        0.00000   0.00000   0.00000   0.00576   0.00000
 127       13F-1        0.00000   0.00000   0.00000   0.00000   0.00576
 128       13F+2        0.00195   0.00000  -0.00000   0.00000   0.00000
 129       13F-2        0.00000   0.00000   0.00000   0.00000   0.00000
 130       13F+3        0.00000   0.00000   0.00000   0.00000   0.00000
 131       13F-3        0.00000   0.00000   0.00000   0.00000  -0.00000
 132       14F 0       -0.00000  -0.05487   0.01650   0.00000   0.00000
 133       14F+1        0.00000   0.00000   0.00000  -0.08714   0.00000
 134       14F-1        0.00000   0.00000   0.00000   0.00000  -0.08714
 135       14F+2        0.00236   0.00000   0.00000   0.00000   0.00000
 136       14F-2        0.00000   0.00000   0.00000   0.00000   0.00000
 137       14F+3        0.00000   0.00000   0.00000  -0.00000   0.00000
 138       14F-3        0.00000   0.00000   0.00000   0.00000   0.00000
                          31        32        33        34        35
                       (PIG)--V  (PIG)--V  (SGG)--V  (SGU)--V  (DLTU)--
     Eigenvalues --     0.48536   0.48536   0.49502   0.59847   0.65552
   1 1   C  1S          0.00000   0.00000   0.11002   0.00000   0.00000
   2        2S          0.00000   0.00000  -0.00191   0.00000   0.00000
   3        3S          0.00000   0.00000   0.07658   0.00000   0.00000
   4        4S          0.00000   0.00000   3.15180   0.00000   0.00000
   5        5S          0.00000   0.00000  -0.86097   0.00000   0.00000
   6        6PX         0.00000   0.00000   0.00000   0.00000   0.00000
   7        6PY         0.00000   0.00000   0.00000   0.00000   0.00000
   8        6PZ         0.00000   0.00000   0.00000  -0.16292   0.00000
   9        7PX         0.00000   0.00000   0.00000   0.00000   0.00000
  10        7PY         0.00000   0.00000   0.00000   0.00000   0.00000
  11        7PZ         0.00000   0.00000   0.00000   0.16606  -0.00000
  12        8PX         0.00000   0.00000   0.00000   0.00000   0.00000
  13        8PY         0.00000   0.00000   0.00000   0.00000   0.00000
[...]
 130       13F+3        0.00000   0.00000   0.00000   0.00000  -0.00000
 131       13F-3        0.00000   0.00000   0.00000   0.00000  -0.00000
 132       14F 0        0.00000   0.00000   0.00000   0.00000   0.00005
 133       14F+1        0.00000   0.00000   0.00000   0.00000   0.00000
 134       14F-1        0.00000   0.00000   0.00000   0.00000  -0.00000
 135       14F+2        0.00000   0.00000   0.00000   0.00000  -0.00000
 136       14F-2        0.00000   0.00000   0.00000   0.00000   0.00000
 137       14F+3        0.00000   0.00000   0.00000   0.00000   0.00000
 138       14F-3        0.00000   0.00000   0.00000   0.00000   0.00000
                         126       127       128       129       130
 126       13F+1        0.00038
 127       13F-1        0.00000   0.00038
 128       13F+2        0.00000  -0.00000   0.00030
 129       13F-2       -0.00000   0.00000   0.00000   0.00030
 130       13F+3        0.00000   0.00000  -0.00000  -0.00000   0.00027
 131       13F-3        0.00000  -0.00000   0.00000   0.00000  -0.00000
 132       14F 0        0.00000  -0.00000   0.00000   0.00000   0.00000
 133       14F+1        0.00004   0.00000   0.00000  -0.00000  -0.00000
 134       14F-1        0.00000   0.00004  -0.00000   0.00000   0.00000
 135       14F+2        0.00000  -0.00000   0.00003   0.00000  -0.00000
 136       14F-2       -0.00000   0.00000   0.00000   0.00003  -0.00000
 137       14F+3       -0.00000   0.00000  -0.00000  -0.00000   0.00003
 138       14F-3        0.00000  -0.00000   0.00000   0.00000  -0.00000
                         131       132       133       134       135
 131       13F-3        0.00027
 132       14F 0       -0.00000   0.00035
 133       14F+1        0.00000   0.00000   0.00035
 134       14F-1       -0.00000  -0.00000   0.00000   0.00035
 135       14F+2        0.00000   0.00000   0.00000  -0.00000   0.00020
 136       14F-2        0.00000   0.00000  -0.00000   0.00000  -0.00000
 137       14F+3       -0.00000   0.00000  -0.00000   0.00000  -0.00000
 138       14F-3        0.00003   0.00000   0.00000  -0.00000   0.00000
                         136       137       138
 136       14F-2        0.00020
 137       14F+3       -0.00000   0.00015
 138       14F-3        0.00000   0.00000   0.00015
     Gross orbital populations:
                           1
   1 1   C  1S          1.96446
   2        2S          0.79005
   3        3S          0.20499
   4        4S          0.16645
   5        5S          0.00201
   6        6PX         0.22700
   7        6PY         0.22700
   8        6PZ         0.36040
   9        7PX         0.44449
  10        7PY         0.44449
  11        7PZ         0.30571
  12        8PX         0.12960
  13        8PY         0.12960
  14        8PZ        -0.05511
  15        9PX         0.00336
  16        9PY         0.00336
  17        9PZ        -0.00307
  18       10D 0        0.02140
  19       10D+1        0.02499
  20       10D-1        0.02499
  21       10D+2        0.00114
  22       10D-2        0.00114
  23       11D 0        0.01644
  24       11D+1        0.08309
  25       11D-1        0.08309
  26       11D+2        0.00125
  27       11D-2        0.00125
  28       12D 0       -0.00824
  29       12D+1        0.00471
  30       12D-1        0.00471
  31       12D+2       -0.00000
  32       12D-2       -0.00000
  33       13F 0        0.00302
  34       13F+1        0.01073
  35       13F-1        0.01073
  36       13F+2        0.00058
  37       13F-2        0.00058
  38       13F+3        0.00016
  39       13F-3        0.00016
  40       14F 0        0.00833
  41       14F+1        0.00798
  42       14F-1        0.00798
  43       14F+2        0.00018
  44       14F-2        0.00018
  45       14F+3        0.00004
  46       14F-3        0.00004
  47 2   O  1S          1.96201
  48        2S          1.01347
  49        3S          0.24792
  50        4S          0.61694
  51        5S          0.02263
  52        6PX         0.43052
  53        6PY         0.43052
  54        6PZ         0.40134
  55        7PX         0.68991
  56        7PY         0.68991
  57        7PZ         0.64657
  58        8PX         0.37954
  59        8PY         0.37954
  60        8PZ         0.18804
  61        9PX         0.01096
  62        9PY         0.01096
  63        9PZ        -0.00668
  64       10D 0        0.00424
  65       10D+1        0.00286
  66       10D-1        0.00286
  67       10D+2        0.00160
  68       10D-2        0.00160
  69       11D 0        0.01341
  70       11D+1        0.01155
  71       11D-1        0.01155
  72       11D+2        0.00363
  73       11D-2        0.00363
  74       12D 0       -0.00857
  75       12D+1        0.00206
  76       12D-1        0.00206
  77       12D+2        0.00062
  78       12D-2        0.00062
  79       13F 0        0.00122
  80       13F+1        0.00105
  81       13F-1        0.00105
  82       13F+2        0.00035
  83       13F-2        0.00035
  84       13F+3        0.00030
  85       13F-3        0.00030
  86       14F 0       -0.00102
  87       14F+1       -0.00002
  88       14F-1       -0.00002
  89       14F+2        0.00026
  90       14F-2        0.00026
  91       14F+3        0.00019
  92       14F-3        0.00019
  93 3   O  1S          1.96201
  94        2S          1.01347
  95        3S          0.24792
  96        4S          0.61694
  97        5S          0.02263
  98        6PX         0.43052
  99        6PY         0.43052
 100        6PZ         0.40134
 101        7PX         0.68991
 102        7PY         0.68991
 103        7PZ         0.64657
 104        8PX         0.37954
 105        8PY         0.37954
 106        8PZ         0.18804
 107        9PX         0.01096
 108        9PY         0.01096
 109        9PZ        -0.00668
 110       10D 0        0.00424
 111       10D+1        0.00286
 112       10D-1        0.00286
 113       10D+2        0.00160
 114       10D-2        0.00160
 115       11D 0        0.01341
 116       11D+1        0.01155
 117       11D-1        0.01155
 118       11D+2        0.00363
 119       11D-2        0.00363
 120       12D 0       -0.00857
 121       12D+1        0.00206
 122       12D-1        0.00206
 123       12D+2        0.00062
 124       12D-2        0.00062
 125       13F 0        0.00122
 126       13F+1        0.00105
 127       13F-1        0.00105
 128       13F+2        0.00035
 129       13F-2        0.00035
 130       13F+3        0.00030
 131       13F-3        0.00030
 132       14F 0       -0.00102
 133       14F+1       -0.00002
 134       14F-1       -0.00002
 135       14F+2        0.00026
 136       14F-2        0.00026
 137       14F+3        0.00019
 138       14F-3        0.00019
          Condensed to atoms (all electrons):
               1          2          3
     1  C    4.721161   0.467135   0.467135
     2  O    0.467135   7.851975  -0.146826
     3  O    0.467135  -0.146826   7.851975
 Mulliken charges:
               1
     1  C    0.344569
     2  O   -0.172284
     3  O   -0.172284
 Sum of Mulliken charges =  -0.00000
 Mulliken charges with hydrogens summed into heavy atoms:
               1
     1  C    0.344569
     2  O   -0.172284
     3  O   -0.172284
 Electronic spatial extent (au):  <R**2>=            114.8604
 Charge=              0.0000 electrons
 Dipole moment (field-independent basis, Debye):
    X=             -0.0000    Y=              0.0000    Z=              0.0000  Tot=              0.0000
 Quadrupole moment (field-independent basis, Debye-Ang):
   XX=            -15.0460   YY=            -15.0460   ZZ=            -19.1570
   XY=             -0.0000   XZ=              0.0000   YZ=             -0.0000
 Traceless Quadrupole moment (field-independent basis, Debye-Ang):
   XX=              1.3703   YY=              1.3703   ZZ=             -2.7407
   XY=             -0.0000   XZ=              0.0000   YZ=             -0.0000
 Octapole moment (field-independent basis, Debye-Ang**2):
  XXX=             -0.0000  YYY=             -0.0000  ZZZ=             -0.0000  XYY=             -0.0000
  XXY=             -0.0000  XXZ=              0.0000  XZZ=             -0.0000  YZZ=              0.0000
  YYZ=              0.0000  XYZ=             -0.0000
 Hexadecapole moment (field-independent basis, Debye-Ang**3):
 XXXX=            -12.3835 YYYY=            -12.3835 ZZZZ=           -104.7904 XXXY=             -0.0000
 XXXZ=              0.0000 YYYX=             -0.0000 YYYZ=             -0.0000 ZZZX=              0.0000
 ZZZY=             -0.0000 XXYY=             -4.1278 XXZZ=            -19.3699 YYZZ=            -19.3699
 XXYZ=             -0.0000 YYXZ=              0.0000 ZZXY=             -0.0000
 N-N= 5.788172623521D+01 E-N=-5.594227488073D+02  KE= 1.881465868765D+02
 Symmetry AG   KE= 1.015109064567D+02
 Symmetry B1G  KE= 2.698256215878D-02
 Symmetry B2G  KE= 4.776044611961D+00
 Symmetry B3G  KE= 4.776044611961D+00
 Symmetry AU   KE= 2.401710468180D-02
 Symmetry B1U  KE= 6.941285255580D+01
 Symmetry B2U  KE= 3.809869486613D+00
 Symmetry B3U  KE= 3.809869486613D+00
 Orbital energies and kinetic energies (alpha):
                                 1                 2
   1 (SGU)--O                -20.655560         29.192320
   2 (SGG)--O                -20.655516         29.191106
   3 (SGG)--O                -11.466769         16.021671
   4 (SGG)--O                 -1.526676          2.732967
   5 (SGU)--O                 -1.473722          2.840332
   6 (SGG)--O                 -0.802273          2.712381
   7 (SGU)--O                 -0.742139          2.590928
   8 (PIU)--O                 -0.711784          1.836487
   9 (PIU)--O                 -0.711784          1.836487
  10 (PIG)--O                 -0.544393          2.336800
  11 (PIG)--O                 -0.544393          2.336800
  12 (SGG)--V                  0.047074          0.180015
  13 (PIU)--V                  0.072995          0.115848
  14 (PIU)--V                  0.072995          0.115848
  15 (SGU)--V                  0.078871          0.114618
  16 (SGG)--V                  0.160895          0.222502
  17 (PIG)--V                  0.163821          0.210940
  18 (PIG)--V                  0.163821          0.210940
  19 (PIU)--V                  0.194515          1.699056
  20 (PIU)--V                  0.194515          1.699056
  21 (SGG)--V                  0.205945          0.733985
  22 (SGU)--V                  0.224142          0.232785
  23 (PIU)--V                  0.246677          0.609883
  24 (PIU)--V                  0.246677          0.609883
  25 (DLTG)--V                 0.278680          0.336416
  26 (DLTG)--V                 0.278680          0.336416
  27 (SGU)--V                  0.296803          0.527094
  28 (SGG)--V                  0.435197          1.706388
  29 (PIU)--V                  0.452077          0.903470
  30 (PIU)--V                  0.452077          0.903470
  31 (PIG)--V                  0.483191          0.747010
  32 (PIG)--V                  0.483191          0.747010
  33 (SGG)--V                  0.512346          1.253087
  34 (SGU)--V                  0.602986          0.840738
  35 (DLTU)--V                 0.654735          0.732955
  36 (DLTU)--V                 0.654735          0.732955
  37 (SGG)--V                  0.709254          1.315449
  38 (DLTG)--V                 0.781998          0.963804
  39 (DLTG)--V                 0.781998          0.963804
  40 (PIG)--V                  0.786856          0.888216
  41 (PIG)--V                  0.786856          0.888216
  42 (SGU)--V                  0.877193          1.592967
  43 (PIU)--V                  0.881509          1.529199
  44 (PIU)--V                  0.881509          1.529199
  45 (SGG)--V                  0.934740          1.873442
  46 (SGU)--V                  1.036394          1.345459
  47 (PHIU)--V                 1.040986          1.154648
  48 (PHIU)--V                 1.040986          1.154648
  49 (DLTG)--V                 1.084194          1.336062
  50 (DLTG)--V                 1.084194          1.336062
  51 (PIU)--V                  1.106022          1.723965
  52 (PIU)--V                  1.106022          1.723965
  53 (PIG)--V                  1.228546          2.265123
  54 (PIG)--V                  1.228546          2.265123
  55 (SGU)--V                  1.303678          4.724223
  56 (DLTU)--V                 1.343248          1.523252
  57 (DLTU)--V                 1.343248          1.523252
  58 (SGU)--V                  1.358161          2.035705
  59 (PIG)--V                  1.492728          2.237546
  60 (PIG)--V                  1.492728          2.237546
  61 (SGG)--V                  1.511960          2.840045
  62 (PIU)--V                  1.623329          2.336797
  63 (PIU)--V                  1.623329          2.336797
  64 (SGG)--V                  1.791508          3.182197
  65 (PHIG)--V                 2.030767          2.174691
  66 (PHIG)--V                 2.030767          2.174691
  67 (DLTU)--V                 2.188442          2.641931
  68 (DLTU)--V                 2.188442          2.641931
  69 (DLTG)--V                 2.250601          2.867950
  70 (DLTG)--V                 2.250601          2.867950
  71 (PHIU)--V                 2.275690          2.412109
  72 (PHIU)--V                 2.275690          2.412109
  73 (PIU)--V                  2.325792          3.216975
  74 (PIU)--V                  2.325792          3.216975
  75 (SGG)--V                  2.372304          3.201934
  76 (SGU)--V                  2.398709          3.558654
  77 (SGG)--V                  2.465416          3.697999
  78 (PIG)--V                  2.484070          2.753285
  79 (PIG)--V                  2.484070          2.753285
  80 (SGU)--V                  2.590613          3.711607
  81 (DLTG)--V                 2.609978          2.807693
  82 (DLTG)--V                 2.609978          2.807693
  83 (DLTU)--V                 2.781733          3.148685
  84 (DLTU)--V                 2.781733          3.148685
  85 (PIG)--V                  2.909456          3.684641
  86 (PIG)--V                  2.909456          3.684641
  87 (SGU)--V                  2.916850          4.289166
  88 (PIU)--V                  2.957479          5.162775
  89 (PIU)--V                  2.957479          5.162775
  90 (PIU)--V                  3.037211          3.903814
  91 (PIU)--V                  3.037211          3.903814
  92 (DLTG)--V                 3.343464          4.599978
  93 (DLTG)--V                 3.343464          4.599978
  94 (PHIU)--V                 3.350028          3.952127
  95 (PHIU)--V                 3.350028          3.952127
  96 (SGG)--V                  3.789192          6.591783
  97 (SGU)--V                  3.874569          6.031197
  98 (PIG)--V                  3.942843          6.551173
  99 (PIG)--V                  3.942843          6.551173
 100 (DLTU)--V                 3.985233          4.623615
 101 (DLTU)--V                 3.985233          4.623615
 102 (PIU)--V                  4.144461          7.453700
 103 (PIU)--V                  4.144461          7.453700
 104 (SGG)--V                  4.506452          7.709305
 105 (PIG)--V                  4.932436          8.854756
 106 (PIG)--V                  4.932436          8.854756
 107 (SGG)--V                  5.295926         10.469214
 108 (SGU)--V                  5.473905          9.029212
 109 (PIU)--V                  5.713547          8.141808
 110 (PIU)--V                  5.713547          8.141808
 111 (SGU)--V                  5.834351         11.117131
 112 (PHIG)--V                 6.436082          7.416503
 113 (PHIG)--V                 6.436082          7.416503
 114 (PHIU)--V                 6.547878          7.530927
 115 (PHIU)--V                 6.547878          7.530927
 116 (DLTG)--V                 6.673868          7.720771
 117 (DLTG)--V                 6.673868          7.720771
 118 (DLTU)--V                 6.889486          8.058856
 119 (DLTU)--V                 6.889486          8.058856
 120 (DLTG)--V                 7.062412          9.667389
 121 (DLTG)--V                 7.062412          9.667389
 122 (PIG)--V                  7.108602          8.341579
 123 (PIG)--V                  7.108602          8.341579
 124 (SGU)--V                  7.151796          8.912141
 125 (DLTU)--V                 7.212189          9.667086
 126 (DLTU)--V                 7.212189          9.667086
 127 (PIU)--V                  7.311807          9.981934
 128 (PIU)--V                  7.311807          9.981934
 129 (SGG)--V                  7.398491         10.236478
 130 (SGG)--V                  7.483815         11.343775
 131 (PIG)--V                  7.732728         10.352195
 132 (PIG)--V                  7.732728         10.352195
 133 (SGU)--V                  8.032318         12.420849
 134 (PIU)--V                  8.090426          9.983603
 135 (PIU)--V                  8.090426          9.983603
 136 (SGG)--V                 13.870843         36.798186
 137 (SGG)--V                 15.972217         35.352558
 138 (SGU)--V                 20.997608         52.012170
 Total kinetic energy from orbitals= 1.872565603511D+02
 Breneman (CHELPG) radii used.
 Generate Potential Derived Charges using the Breneman model, NDens= 1.
 Grid spacing= 0.300 Box extension= 2.800
 NStep X,Y,Z=   20     20     28   Total possible points=       11200
 Number of Points to Fit=    4136

 **********************************************************************

            Electrostatic Properties Using The MP2 Density.

 **********************************************************************

       Atomic Center    1 is at   0.000000  0.000000 -0.000000
       Atomic Center    2 is at   0.000000  0.000000  1.170226
       Atomic Center    3 is at   0.000000 -0.000000 -1.170226
    4136 points will be used for fitting atomic charges
 Fitting point charges to electrostatic potential
 Charges from ESP fit, RMS=   0.00191 RRMS=   0.14648:
 ESP charges:
               1
     1  C    0.711669
     2  O   -0.355834
     3  O   -0.355834
 Sum of ESP charges =  -0.00000
 ESP charges with hydrogens summed into heavy atoms:
               1
     1  C    0.711669
     2  O   -0.355834
     3  O   -0.355834
 Charge=  -0.00000 Dipole=    -0.0000    -0.0000    -0.0000 Tot=     0.0000
 -----------------------------------------------------------------

              Electrostatic Properties (Atomic Units)

 -----------------------------------------------------------------
    Center     Electric         -------- Electric Field --------
               Potential          X             Y             Z
 -----------------------------------------------------------------
    1 Atom    -14.582828
    2 Atom    -22.260145
    3 Atom    -22.260145
 -----------------------------------------------------------------
 Unable to Open any file for archive entry.
 1\1\GINC-GRA719\FOpt\RMP2-FC\Aug-CC-pVTZ\C1O2\CROWLEY\25-Jan-2022\0\\#
 MP2/aug-cc-pvtz opt=tight pop=(full,chelpg) density\\Title Card Requir
 ed\\0,1\C,-2.51131212,-0.27903469,0.\O,-3.6815378096,-0.27903469,0.\O,
 -1.3410864304,-0.27903469,0.\\Version=ES64L-G16RevC.01\State=1-SGG\HF=
 -187.7068746\MP2=-188.3216406\RMSD=2.255e-09\RMSF=1.374e-08\Dipole=0.,
 0.,0.\Quadrupole=1.0188107,1.0188107,-2.0376215,0.,0.,0.\PG=D*H [O(C1)
 ,C*(O1.O1)]\\@
 The archive entry for this job was punched.


 WE ARE REACHING THE STAGE WHERE THE PROBLEMS WE MUST SOLVE ARE 
 GOING TO BECOME INSOLUBLE WITHOUT COMPUTERS.
 I DO NOT FEAR COMPUTERS.  I FEAR THE LACK OF THEM.

                                   -- ISSAC ASIMOV
 Job cpu time:       0 days  0 hours  4 minutes  6.6 seconds.
 Elapsed time:       0 days  0 hours  0 minutes 31.2 seconds.
 File lengths (MBytes):  RWF=     15 Int=      0 D2E=      0 Chk=      3 Scr=      1
 Normal termination of Gaussian 16 at Tue Jan 25 11:18:22 2022.
