 Entering Gaussian System, Link 0=g16
 Initial command:
 /opt/software/gaussian/g16.c01/l1.exe "/localscratch/crowley.57109909.0/Gau-28722.inp" -scrdir="/localscratch/crowley.57109909.0/"
 Entering Link 1 = /opt/software/gaussian/g16.c01/l1.exe PID=     28790.
  
 Copyright (c) 1988-2019, Gaussian, Inc.  All Rights Reserved.
  
 This is part of the Gaussian(R) 16 program.  It is based on
 the Gaussian(R) 09 system (copyright 2009, Gaussian, Inc.),
 the Gaussian(R) 03 system (copyright 2003, Gaussian, Inc.),
 the Gaussian(R) 98 system (copyright 1998, Gaussian, Inc.),
 the Gaussian(R) 94 system (copyright 1995, Gaussian, Inc.),
 the Gaussian 92(TM) system (copyright 1992, Gaussian, Inc.),
 the Gaussian 90(TM) system (copyright 1990, Gaussian, Inc.),
 the Gaussian 88(TM) system (copyright 1988, Gaussian, Inc.),
 the Gaussian 86(TM) system (copyright 1986, Carnegie Mellon
 University), and the Gaussian 82(TM) system (copyright 1983,
 Carnegie Mellon University). Gaussian is a federally registered
 trademark of Gaussian, Inc.
  
 This software contains proprietary and confidential information,
 including trade secrets, belonging to Gaussian, Inc.
  
 This software is provided under written license and may be
 used, copied, transmitted, or stored only in accord with that
 written license.
  
 The following legend is applicable only to US Government
 contracts under FAR:
  
                    RESTRICTED RIGHTS LEGEND
  
 Use, reproduction and disclosure by the US Government is
 subject to restrictions as set forth in subparagraphs (a)
 and (c) of the Commercial Computer Software - Restricted
 Rights clause in FAR 52.227-19.
  
 Gaussian, Inc.
 340 Quinnipiac St., Bldg. 40, Wallingford CT 06492
  
  
 ---------------------------------------------------------------
 Warning -- This program may not be used in any manner that
 competes with the business of Gaussian, Inc. or will provide
 assistance to any competitor of Gaussian, Inc.  The licensee
 of this program is prohibited from giving any competitor of
 Gaussian, Inc. access to this program.  By using this program,
 the user acknowledges that Gaussian, Inc. is engaged in the
 business of creating and licensing software in the field of
 computational chemistry and represents and warrants to the
 licensee that it is not a competitor of Gaussian, Inc. and that
 it will not use this program in any manner prohibited above.
 ---------------------------------------------------------------
  

 Cite this work as:
 Gaussian 16, Revision C.01,
 M. J. Frisch, G. W. Trucks, H. B. Schlegel, G. E. Scuseria, 
 M. A. Robb, J. R. Cheeseman, G. Scalmani, V. Barone, 
 G. A. Petersson, H. Nakatsuji, X. Li, M. Caricato, A. V. Marenich, 
 J. Bloino, B. G. Janesko, R. Gomperts, B. Mennucci, H. P. Hratchian, 
 J. V. Ortiz, A. F. Izmaylov, J. L. Sonnenberg, D. Williams-Young, 
 F. Ding, F. Lipparini, F. Egidi, J. Goings, B. Peng, A. Petrone, 
 T. Henderson, D. Ranasinghe, V. G. Zakrzewski, J. Gao, N. Rega, 
 G. Zheng, W. Liang, M. Hada, M. Ehara, K. Toyota, R. Fukuda, 
 J. Hasegawa, M. Ishida, T. Nakajima, Y. Honda, O. Kitao, H. Nakai, 
 T. Vreven, K. Throssell, J. A. Montgomery, Jr., J. E. Peralta, 
 F. Ogliaro, M. J. Bearpark, J. J. Heyd, E. N. Brothers, K. N. Kudin, 
 V. N. Staroverov, T. A. Keith, R. Kobayashi, J. Normand, 
 K. Raghavachari, A. P. Rendell, J. C. Burant, S. S. Iyengar, 
 J. Tomasi, M. Cossi, J. M. Millam, M. Klene, C. Adamo, R. Cammi, 
 J. W. Ochterski, R. L. Martin, K. Morokuma, O. Farkas, 
 J. B. Foresman, and D. J. Fox, Gaussian, Inc., Wallingford CT, 2019.
 
 ******************************************
 Gaussian 16:  ES64L-G16RevC.01  3-Jul-2019
                25-Jan-2022 
 ******************************************
 %chk=h2o-dimer.chk
 %nproc=8
 Will use up to    8 processors via shared memory.
 %mem=2000MB
 --------------------------------------------------
 #MP2/aug-cc-pvtz opt=(maxcycles=50) counterpoise=2
 --------------------------------------------------
 1/6=50,18=20,19=15,38=1,62=2/1,3;
 2/9=110,12=2,17=6,18=5,40=1/2;
 1/6=50,18=20,19=15,38=1,53=2,62=2,63=101/22;
 3/5=16,6=1,7=10,11=9,25=1,30=1,71=1/1,2,3;
 4//1;
 5/5=2,38=5/2;
 8/6=4,10=1/1;
 9/15=2,16=-3/6;
 10/5=1/2;
 6/7=2,8=2,9=2,10=2/1;
 7/7=1,12=2,33=-1/1,2,3,16;
 1/6=50,18=20,19=15,53=2,62=2,63=101/22;
 3/5=7,6=11,7=10,11=9,25=1,30=1,71=1,82=7/1,2,3;
 4//1;
 5/5=2,38=5/2;
 8/6=4,10=1/1;
 9/15=2,16=-3/6;
 10/5=1/2;
 6/7=2,8=2,9=2,10=2/1;
 7/7=1,12=2,33=-1/1,2,3,16;
 1/6=50,18=20,19=15,53=2,62=2,63=101/22(-8);
 7/9=1,44=-1,126=2/16;
 1/6=50,18=20,19=15,62=2/3(2);
 2/9=110/2;
 99//99;
 2/9=110/2;
 1/6=50,18=20,19=15,53=3,62=2,63=101/22;
 3/5=7,6=11,7=10,11=9,25=1,30=1,71=1,82=7/1,2,3;
 4/5=5,16=3,69=1/1;
 5/5=2,38=5/2;
 8/6=4,10=1/1;
 9/15=2,16=-3/6;
 10/5=1/2;
 7/7=1,12=2,33=-1/1,2,3,16;
 1/6=50,18=20,19=15,53=3,62=2,63=101/22(-7);
 7/9=1,44=-1,126=2/16;
 1/6=50,18=20,19=15,62=2/3(-11);
 2/9=110/2;
 99/9=10/99;
 -------------------
 Title Card Required
 -------------------
 Symbolic Z-matrix:
 Charge =  0 Multiplicity = 1 in supermolecule
 Charge =  0 Multiplicity = 1 in fragment      1.
 Charge =  0 Multiplicity = 1 in fragment      2.
 O(Fragment=1)         1.36501  -0.53544   0. 
 H(Fragment=1)         2.32501  -0.53544   0. 
 H(Fragment=1)         1.04455   0.36949   0. 
 O(Fragment=2)        -1.73597  -3.72793   2.24077 
 H(Fragment=2)        -1.14897  -3.06048   1.87808 
 H(Fragment=2)        -2.06545  -3.43557   3.09375 
 
 Add virtual bond connecting atoms H5         and O1         Dist= 7.61D+00.

 GradGradGradGradGradGradGradGradGradGradGradGradGradGradGradGradGradGrad
 Berny optimization.
 Initialization pass.
                           ----------------------------
                           !    Initial Parameters    !
                           ! (Angstroms and Degrees)  !
 --------------------------                            --------------------------
 ! Name  Definition              Value          Derivative Info.                !
 --------------------------------------------------------------------------------
 ! R1    R(1,2)                  0.96           estimate D2E/DX2                !
 ! R2    R(1,3)                  0.96           estimate D2E/DX2                !
 ! R3    R(1,5)                  4.0278         estimate D2E/DX2                !
 ! R4    R(4,5)                  0.96           estimate D2E/DX2                !
 ! R5    R(4,6)                  0.96           estimate D2E/DX2                !
 ! A1    A(2,1,3)              109.5            estimate D2E/DX2                !
 ! A2    A(2,1,5)              128.6205         estimate D2E/DX2                !
 ! A3    A(3,1,5)              112.4946         estimate D2E/DX2                !
 ! A4    A(5,4,6)              109.5            estimate D2E/DX2                !
 ! A5    L(1,5,4,6,-1)         186.4503         estimate D2E/DX2                !
 ! A6    L(1,5,4,6,-2)         180.0            estimate D2E/DX2                !
 ! D1    D(2,1,3,5)           -149.69           estimate D2E/DX2                !
 ! D2    D(2,1,4,6)             96.7078         estimate D2E/DX2                !
 ! D3    D(3,1,4,6)            -47.1481         estimate D2E/DX2                !
 --------------------------------------------------------------------------------
 Trust Radius=3.00D-01 FncErr=1.00D-07 GrdErr=1.00D-07 EigMax=2.50D+02 EigMin=1.00D-04
 Number of steps in this run=     50 maximum allowed number of steps=    100.
 GradGradGradGradGradGradGradGradGradGradGradGradGradGradGradGradGradGrad

                          Input orientation:                          
 ---------------------------------------------------------------------
 Center     Atomic      Atomic             Coordinates (Angstroms)
 Number     Number       Type             X           Y           Z
 ---------------------------------------------------------------------
      1          8           0        1.365007   -0.535445    0.000000
      2          1           0        2.325007   -0.535445    0.000000
      3          1           0        1.044553    0.369491    0.000000
      4          8           0       -1.735968   -3.727931    2.240775
      5          1           0       -1.148974   -3.060482    1.878077
      6          1           0       -2.065449   -3.435566    3.093749
 ---------------------------------------------------------------------
                    Distance matrix (angstroms):
                    1          2          3          4          5
     1  O    0.000000
     2  H    0.960000   0.000000
     3  H    0.960000   1.567952   0.000000
     4  O    4.982880   5.630681   5.435185   0.000000
     5  H    4.027790   4.687381   4.483687   0.960000   0.000000
     6  H    5.454358   6.103941   5.807052   0.960000   1.567952
                    6
     6  H    0.000000
 Stoichiometry    H4O2
 Framework group  C1[X(H4O2)]
 Deg. of freedom    12
 Full point group                 C1      NOp   1
 Largest Abelian subgroup         C1      NOp   1
 Largest concise Abelian subgroup C1      NOp   1
                         Standard orientation:                         
 ---------------------------------------------------------------------
 Center     Atomic      Atomic             Coordinates (Angstroms)
 Number     Number       Type             X           Y           Z
 ---------------------------------------------------------------------
      1          8           0        2.415417   -0.025625   -0.043203
      2          1           0        3.016358   -0.598868    0.438318
      3          1           0        2.787227    0.857980   -0.094191
      4          8           0       -2.567162   -0.075291   -0.066403
      5          1           0       -1.612094   -0.002759   -0.001705
      6          1           0       -2.977533    0.550973    0.534421
 ---------------------------------------------------------------------
 Rotational constants (GHZ):         245.7072798           2.2183611           2.2094294
 Counterpoise: doing full-system calculation.
 Standard basis: Aug-CC-pVTZ (5D, 7F)
 There are   210 symmetry adapted cartesian basis functions of A   symmetry.
 There are   184 symmetry adapted basis functions of A   symmetry.
   184 basis functions,   252 primitive gaussians,   210 cartesian basis functions
    10 alpha electrons       10 beta electrons
       nuclear repulsion energy        28.8776553883 Hartrees.
 NAtoms=    6 NActive=    6 NUniq=    6 SFac= 1.00D+00 NAtFMM=   60 NAOKFM=F Big=F
 Integral buffers will be    131072 words long.
 Raffenetti 1 integral format.
 Two-electron integral symmetry is turned on.
 One-electron integrals computed using PRISM.
 NBasis=   184 RedAO= T EigKep=  3.41D-04  NBF=   184
 NBsUse=   184 1.00D-06 EigRej= -1.00D+00 NBFU=   184
 ExpMin= 2.53D-02 ExpMax= 1.53D+04 ExpMxC= 5.22D+02 IAcc=3 IRadAn=         5 AccDes= 0.00D+00
 Harris functional with IExCor=  205 and IRadAn=       5 diagonalized for initial guess.
 HarFok:  IExCor=  205 AccDes= 0.00D+00 IRadAn=         5 IDoV= 1 UseB2=F ITyADJ=14
 ICtDFT=  3500011 ScaDFX=  1.000000  1.000000  1.000000  1.000000
 FoFCou: FMM=F IPFlag=           0 FMFlag=      100000 FMFlg1=           0
         NFxFlg=           0 DoJE=T BraDBF=F KetDBF=T FulRan=T
         wScrn=  0.000000 ICntrl=       500 IOpCl=  0 I1Cent=   200000004 NGrid=           0
         NMat0=    1 NMatS0=      1 NMatT0=    0 NMatD0=    1 NMtDS0=    0 NMtDT0=    0
 Petite list used in FoFCou.
 Keep R1 ints in memory in canonical form, NReq=149546646.
 Requested convergence on RMS density matrix=1.00D-08 within 128 cycles.
 Requested convergence on MAX density matrix=1.00D-06.
 Requested convergence on             energy=1.00D-06.
 No special actions if energy rises.
 SCF Done:  E(RHF) =  -152.121244484     A.U. after   10 cycles
            NFock= 10  Conv=0.62D-08     -V/T= 2.0016
 ExpMin= 2.53D-02 ExpMax= 1.53D+04 ExpMxC= 5.22D+02 IAcc=3 IRadAn=         5 AccDes= 0.00D+00
 HarFok:  IExCor=  205 AccDes= 0.00D+00 IRadAn=         5 IDoV=-2 UseB2=F ITyADJ=14
 ICtDFT= 12500011 ScaDFX=  1.000000  1.000000  1.000000  1.000000
 Range of M.O.s used for correlation:     3   184
 NBasis=   184 NAE=    10 NBE=    10 NFC=     2 NFV=     0
 NROrb=    182 NOA=     8 NOB=     8 NVA=   174 NVB=   174

 **** Warning!!: The largest alpha MO coefficient is  0.14317694D+02

 Disk-based method using ON**2 memory for  8 occupieds at a time.
 Estimated scratch disk usage=   123514472 words.
 Actual    scratch disk usage=   113398376 words.
 JobTyp=1 Pass  1:  I=   3 to  10 NPSUse=  8 ParTrn=T ParDer=T DoDerP=T.
 (rs|ai) integrals will be sorted in core.
 Spin components of T(2) and E(2):
     alpha-alpha T2 =       0.1624724916D-01 E2=     -0.6513166446D-01
     alpha-beta  T2 =       0.9431856949D-01 E2=     -0.4062837068D+00
     beta-beta   T2 =       0.1624724916D-01 E2=     -0.6513166446D-01
 ANorm=    0.1061514516D+01
 E2 =    -0.5365470357D+00 EUMP2 =    -0.15265779151944D+03
          IDoAtm=111111
          Differentiating once with respect to electric field.
                with respect to dipole field.
          Differentiating once with respect to nuclear coordinates.
 Keep R1 ints in memory in canonical form, NReq=149547904.
          There are     1 degrees of freedom in the 1st order CPHF.  IDoFFX=0 NUNeed=     1.
 LinEq1:  Iter=  0 NonCon=     1 RMS=3.26D-03 Max=3.72D-02 NDo=     1
 AX will form     1 AO Fock derivatives at one time.
 LinEq1:  Iter=  1 NonCon=     1 RMS=4.32D-04 Max=4.12D-03 NDo=     1
 LinEq1:  Iter=  2 NonCon=     1 RMS=1.58D-04 Max=1.83D-03 NDo=     1
 LinEq1:  Iter=  3 NonCon=     1 RMS=4.22D-05 Max=3.59D-04 NDo=     1
 LinEq1:  Iter=  4 NonCon=     1 RMS=6.37D-06 Max=5.15D-05 NDo=     1
 LinEq1:  Iter=  5 NonCon=     1 RMS=1.21D-06 Max=1.05D-05 NDo=     1
 LinEq1:  Iter=  6 NonCon=     1 RMS=1.77D-07 Max=1.47D-06 NDo=     1
 LinEq1:  Iter=  7 NonCon=     1 RMS=2.26D-08 Max=1.97D-07 NDo=     1
 LinEq1:  Iter=  8 NonCon=     1 RMS=8.14D-09 Max=8.91D-08 NDo=     1
 LinEq1:  Iter=  9 NonCon=     1 RMS=2.38D-09 Max=2.14D-08 NDo=     1
 LinEq1:  Iter= 10 NonCon=     1 RMS=4.73D-10 Max=4.65D-09 NDo=     1
 LinEq1:  Iter= 11 NonCon=     0 RMS=6.56D-11 Max=6.16D-10 NDo=     1
 Linear equations converged to 1.000D-10 1.000D-09 after    11 iterations.
 End of Minotr F.D. properties file   721 does not exist.
 End of Minotr F.D. properties file   722 does not exist.
 End of Minotr F.D. properties file   788 does not exist.

 **********************************************************************

            Population analysis using the SCF Density.

 **********************************************************************

 Orbital symmetries:
       Occupied  (A) (A) (A) (A) (A) (A) (A) (A) (A) (A)
       Virtual   (A) (A) (A) (A) (A) (A) (A) (A) (A) (A) (A) (A)
                 (A) (A) (A) (A) (A) (A) (A) (A) (A) (A) (A) (A)
                 (A) (A) (A) (A) (A) (A) (A) (A) (A) (A) (A) (A)
                 (A) (A) (A) (A) (A) (A) (A) (A) (A) (A) (A) (A)
                 (A) (A) (A) (A) (A) (A) (A) (A) (A) (A) (A) (A)
                 (A) (A) (A) (A) (A) (A) (A) (A) (A) (A) (A) (A)
                 (A) (A) (A) (A) (A) (A) (A) (A) (A) (A) (A) (A)
                 (A) (A) (A) (A) (A) (A) (A) (A) (A) (A) (A) (A)
                 (A) (A) (A) (A) (A) (A) (A) (A) (A) (A) (A) (A)
                 (A) (A) (A) (A) (A) (A) (A) (A) (A) (A) (A) (A)
                 (A) (A) (A) (A) (A) (A) (A) (A) (A) (A) (A) (A)
                 (A) (A) (A) (A) (A) (A) (A) (A) (A) (A) (A) (A)
                 (A) (A) (A) (A) (A) (A) (A) (A) (A) (A) (A) (A)
                 (A) (A) (A) (A) (A) (A) (A) (A) (A) (A) (A) (A)
                 (A) (A) (A) (A) (A) (A)
 The electronic state is 1-A.
 Alpha  occ. eigenvalues --  -20.57170 -20.55709  -1.35500  -1.34041  -0.73190
 Alpha  occ. eigenvalues --   -0.71724  -0.58150  -0.56666  -0.51509  -0.50047
 Alpha virt. eigenvalues --    0.02411   0.04007   0.04559   0.06760   0.13384
 Alpha virt. eigenvalues --    0.14814   0.15540   0.16576   0.17712   0.17980
 Alpha virt. eigenvalues --    0.19374   0.20056   0.21893   0.24396   0.24875
 Alpha virt. eigenvalues --    0.25900   0.28762   0.29550   0.30801   0.32520
 Alpha virt. eigenvalues --    0.33200   0.37213   0.38305   0.40015   0.43846
 Alpha virt. eigenvalues --    0.46158   0.46336   0.52958   0.60154   0.62661
 Alpha virt. eigenvalues --    0.65336   0.67441   0.71295   0.71769   0.73139
 Alpha virt. eigenvalues --    0.73553   0.74083   0.75786   0.82319   0.83709
 Alpha virt. eigenvalues --    0.84932   0.85275   0.88669   0.90677   0.91019
 Alpha virt. eigenvalues --    0.91470   0.92008   0.92299   0.92827   0.93693
 Alpha virt. eigenvalues --    0.95505   0.97102   0.98582   0.99616   1.02950
 Alpha virt. eigenvalues --    1.04003   1.04369   1.09011   1.10430   1.10969
 Alpha virt. eigenvalues --    1.12444   1.16253   1.17258   1.18232   1.18625
 Alpha virt. eigenvalues --    1.21059   1.26110   1.28295   1.50968   1.53060
 Alpha virt. eigenvalues --    1.57320   1.59062   1.60467   1.60834   1.77293
 Alpha virt. eigenvalues --    1.78748   1.79968   1.81840   1.99901   2.01820
 Alpha virt. eigenvalues --    2.10786   2.12164   2.26039   2.26719   2.31172
 Alpha virt. eigenvalues --    2.32782   2.33383   2.34138   2.40574   2.41203
 Alpha virt. eigenvalues --    2.41811   2.42728   2.43221   2.46139   2.46833
 Alpha virt. eigenvalues --    2.50353   2.68602   2.70490   2.71954   2.72776
 Alpha virt. eigenvalues --    2.76720   2.78300   2.86513   2.87484   2.88486
 Alpha virt. eigenvalues --    2.89607   3.63436   3.65037   3.76847   3.79870
 Alpha virt. eigenvalues --    3.99724   4.01142   4.08532   4.10211   4.21593
 Alpha virt. eigenvalues --    4.21815   4.22957   4.23937   4.33809   4.35286
 Alpha virt. eigenvalues --    4.37746   4.39153   4.40082   4.40393   4.43057
 Alpha virt. eigenvalues --    4.44877   4.47921   4.49705   4.69757   4.72606
 Alpha virt. eigenvalues --    4.78784   4.80965   5.10977   5.12930   5.16286
 Alpha virt. eigenvalues --    5.17806   5.30777   5.31159   5.32520   5.34225
 Alpha virt. eigenvalues --    5.49432   5.50848   5.72720   5.75137   6.11631
 Alpha virt. eigenvalues --    6.13097   6.53205   6.55272   6.70029   6.71393
 Alpha virt. eigenvalues --    6.83123   6.84719   7.13981   7.15049   7.26161
 Alpha virt. eigenvalues --    7.26292   7.27960   7.28644   7.29683   7.30427
 Alpha virt. eigenvalues --    7.35987   7.37289   7.39431   7.40740   7.54546
 Alpha virt. eigenvalues --    7.56644   7.86810   7.89128   7.96343   7.97861
 Alpha virt. eigenvalues --    8.75585   8.77556  15.79611  15.83795
          Condensed to atoms (all electrons):
               1          2          3          4          5          6
     1  O    7.882593   0.283337   0.284444  -0.000039  -0.001014   0.000272
     2  H    0.283337   0.479457   0.011117   0.000003   0.000250  -0.000051
     3  H    0.284444   0.011117   0.479690   0.000047   0.000178  -0.000078
     4  O   -0.000039   0.000003   0.000047   7.912929   0.265816   0.277131
     5  H   -0.001014   0.000250   0.000178   0.265816   0.470877   0.022265
     6  H    0.000272  -0.000051  -0.000078   0.277131   0.022265   0.487098
 Mulliken charges:
               1
     1  O   -0.449592
     2  H    0.225886
     3  H    0.224601
     4  O   -0.455887
     5  H    0.241628
     6  H    0.213364
 Sum of Mulliken charges =  -0.00000
 Mulliken charges with hydrogens summed into heavy atoms:
               1
     1  O    0.000896
     4  O   -0.000896
         Mulliken charges condensed to fragments:
      1      0.000896
      2     -0.000896
 Electronic spatial extent (au):  <R**2>=            487.2547
 Charge=             -0.0000 electrons
 Dipole moment (field-independent basis, Debye):
    X=              2.6831    Y=              1.7172    Z=              1.8692  Tot=              3.6935
 Quadrupole moment (field-independent basis, Debye-Ang):
   XX=             -7.5270   YY=            -11.0837   ZZ=            -13.7216
   XY=             -2.5923   XZ=             -1.1436   YZ=             -0.1251
 Traceless Quadrupole moment (field-independent basis, Debye-Ang):
   XX=              3.2504   YY=             -0.3062   ZZ=             -2.9442
   XY=             -2.5923   XZ=             -1.1436   YZ=             -0.1251
 Octapole moment (field-independent basis, Debye-Ang**2):
  XXX=             38.3166  YYY=              1.9007  ZZZ=              1.1949  XYY=              6.6175
  XXY=             13.8494  XXZ=             18.9563  XZZ=             -0.3253  YZZ=              0.3029
  YYZ=              0.7523  XYZ=             -5.3135
 Hexadecapole moment (field-independent basis, Debye-Ang**3):
 XXXX=           -398.3652 YYYY=            -12.9090 ZZZZ=            -13.8662 XXXY=            -32.7980
 XXXZ=             -9.5728 YYYX=              0.2170 YYYZ=             -0.2648 ZZZX=             -0.8779
 ZZZY=              0.0439 XXYY=            -68.2346 XXZZ=            -88.2139 YYZZ=             -4.4171
 XXYZ=             -0.9958 YYXZ=             -0.5548 ZZXY=             -2.1707
 N-N= 2.887765538833D+01 E-N=-4.189999038931D+02  KE= 1.518762351736D+02
 Calling FoFJK, ICntrl=  10002127 FMM=F ISym2X=0 I1Cent= 0 IOpClX= 0 NMat=1 NMatS=1 NMatT=0.
 ***** Axes restored to original set *****
 Cartesian Forces:  Max     0.009741045 RMS     0.005254817
 CPIOFr:  IOpCl= 0 IRwI=-1 IRwCP=  731 ICalc= -1 LCPTot=       52207 Len1MO=      139218 IndFrg=       52207
 CPIOFr:  IOpCl= 0 IRwI=-1 IRwCP=  731 ICalc=  0 LCPTot=       52207 Len1MO=      139218 IndFrg=      191425
 Counterpoise: doing calculation for fragment   1 using the basis set of the full-system, NewBq=T
 Basis read from rwf:  (5D, 7F)
 There are   210 symmetry adapted cartesian basis functions of A   symmetry.
 There are   184 symmetry adapted basis functions of A   symmetry.
   184 basis functions,   252 primitive gaussians,   210 cartesian basis functions
     5 alpha electrons        5 beta electrons
       nuclear repulsion energy         9.1571160234 Hartrees.
 NAtoms=    6 NActive=    6 NUniq=    6 SFac= 1.00D+00 NAtFMM=   60 NAOKFM=F Big=F
 Integral buffers will be    131072 words long.
 Raffenetti 1 integral format.
 Two-electron integral symmetry is turned on.
 One-electron integrals computed using PRISM.
 NBasis=   184 RedAO= T EigKep=  3.41D-04  NBF=   184
 NBsUse=   184 1.00D-06 EigRej= -1.00D+00 NBFU=   184
 ExpMin= 2.53D-02 ExpMax= 1.53D+04 ExpMxC= 5.22D+02 IAcc=3 IRadAn=         5 AccDes= 0.00D+00
 Harris functional with IExCor=  205 and IRadAn=       5 diagonalized for initial guess.
 HarFok:  IExCor=  205 AccDes= 0.00D+00 IRadAn=         5 IDoV= 1 UseB2=F ITyADJ=14
 ICtDFT=  3500011 ScaDFX=  1.000000  1.000000  1.000000  1.000000
 FoFCou: FMM=F IPFlag=           0 FMFlag=      100000 FMFlg1=           0
         NFxFlg=           0 DoJE=T BraDBF=F KetDBF=T FulRan=T
         wScrn=  0.000000 ICntrl=       500 IOpCl=  0 I1Cent=   200000004 NGrid=           0
         NMat0=    1 NMatS0=      1 NMatT0=    0 NMatD0=    1 NMtDS0=    0 NMtDT0=    0
 Petite list used in FoFCou.
 Keep R1 ints in memory in canonical form, NReq=149546646.
 Requested convergence on RMS density matrix=1.00D-08 within 128 cycles.
 Requested convergence on MAX density matrix=1.00D-06.
 Requested convergence on             energy=1.00D-06.
 No special actions if energy rises.
 SCF Done:  E(RHF) =  -76.0600709595     A.U. after    9 cycles
            NFock=  9  Conv=0.77D-08     -V/T= 2.0016
 ExpMin= 2.53D-02 ExpMax= 1.53D+04 ExpMxC= 5.22D+02 IAcc=3 IRadAn=         5 AccDes= 0.00D+00
 HarFok:  IExCor=  205 AccDes= 0.00D+00 IRadAn=         5 IDoV=-2 UseB2=F ITyADJ=14
 ICtDFT= 12500011 ScaDFX=  1.000000  1.000000  1.000000  1.000000
 Range of M.O.s used for correlation:     2   184
 NBasis=   184 NAE=     5 NBE=     5 NFC=     1 NFV=     0
 NROrb=    183 NOA=     4 NOB=     4 NVA=   179 NVB=   179

 **** Warning!!: The largest alpha MO coefficient is  0.15753962D+02

 Fully direct method using O(ONN) memory.
 JobTyp=1 Pass  1:  I=   2 to   3 NPSUse=  8 ParTrn=T ParDer=T DoDerP=T.
 JobTyp=1 Pass  2:  I=   4 to   5 NPSUse=  8 ParTrn=T ParDer=T DoDerP=T.
 Spin components of T(2) and E(2):
     alpha-alpha T2 =       0.8123290283D-02 E2=     -0.3255802003D-01
     alpha-beta  T2 =       0.4717738597D-01 E2=     -0.2031530058D+00
     beta-beta   T2 =       0.8123290283D-02 E2=     -0.3255802003D-01
 ANorm=    0.1031224499D+01
 E2 =    -0.2682690459D+00 EUMP2 =    -0.76328340005348D+02
          IDoAtm=111111
          Differentiating once with respect to electric field.
                with respect to dipole field.
          Differentiating once with respect to nuclear coordinates.
 Keep R1 ints in memory in canonical form, NReq=149547905.
          There are     1 degrees of freedom in the 1st order CPHF.  IDoFFX=0 NUNeed=     1.
 LinEq1:  Iter=  0 NonCon=     1 RMS=3.22D-03 Max=3.34D-02 NDo=     1
 AX will form     1 AO Fock derivatives at one time.
 LinEq1:  Iter=  1 NonCon=     1 RMS=4.29D-04 Max=4.08D-03 NDo=     1
 LinEq1:  Iter=  2 NonCon=     1 RMS=1.56D-04 Max=1.58D-03 NDo=     1
 LinEq1:  Iter=  3 NonCon=     1 RMS=4.17D-05 Max=3.21D-04 NDo=     1
 LinEq1:  Iter=  4 NonCon=     1 RMS=6.36D-06 Max=5.16D-05 NDo=     1
 LinEq1:  Iter=  5 NonCon=     1 RMS=1.19D-06 Max=9.14D-06 NDo=     1
 LinEq1:  Iter=  6 NonCon=     1 RMS=1.72D-07 Max=1.57D-06 NDo=     1
 LinEq1:  Iter=  7 NonCon=     1 RMS=1.88D-08 Max=1.52D-07 NDo=     1
 LinEq1:  Iter=  8 NonCon=     1 RMS=2.32D-09 Max=2.50D-08 NDo=     1
 LinEq1:  Iter=  9 NonCon=     1 RMS=2.26D-10 Max=2.14D-09 NDo=     1
 LinEq1:  Iter= 10 NonCon=     0 RMS=1.70D-11 Max=1.81D-10 NDo=     1
 Linear equations converged to 1.000D-10 1.000D-09 after    10 iterations.
 End of Minotr F.D. properties file   721 does not exist.
 End of Minotr F.D. properties file   722 does not exist.
 End of Minotr F.D. properties file   788 does not exist.

 **********************************************************************

            Population analysis using the SCF Density.

 **********************************************************************

 Orbital symmetries:
       Occupied  (A) (A) (A) (A) (A)
       Virtual   (A) (A) (A) (A) (A) (A) (A) (A) (A) (A) (A) (A)
                 (A) (A) (A) (A) (A) (A) (A) (A) (A) (A) (A) (A)
                 (A) (A) (A) (A) (A) (A) (A) (A) (A) (A) (A) (A)
                 (A) (A) (A) (A) (A) (A) (A) (A) (A) (A) (A) (A)
                 (A) (A) (A) (A) (A) (A) (A) (A) (A) (A) (A) (A)
                 (A) (A) (A) (A) (A) (A) (A) (A) (A) (A) (A) (A)
                 (A) (A) (A) (A) (A) (A) (A) (A) (A) (A) (A) (A)
                 (A) (A) (A) (A) (A) (A) (A) (A) (A) (A) (A) (A)
                 (A) (A) (A) (A) (A) (A) (A) (A) (A) (A) (A) (A)
                 (A) (A) (A) (A) (A) (A) (A) (A) (A) (A) (A) (A)
                 (A) (A) (A) (A) (A) (A) (A) (A) (A) (A) (A) (A)
                 (A) (A) (A) (A) (A) (A) (A) (A) (A) (A) (A) (A)
                 (A) (A) (A) (A) (A) (A) (A) (A) (A) (A) (A) (A)
                 (A) (A) (A) (A) (A) (A) (A) (A) (A) (A) (A) (A)
                 (A) (A) (A) (A) (A) (A) (A) (A) (A) (A) (A)
 The electronic state is 1-A.
 Alpha  occ. eigenvalues --  -20.56542  -1.34869  -0.72565  -0.57474  -0.50864
 Alpha virt. eigenvalues --    0.02724   0.03932   0.04746   0.06525   0.12550
 Alpha virt. eigenvalues --    0.13220   0.14314   0.15232   0.16630   0.18083
 Alpha virt. eigenvalues --    0.18329   0.20225   0.22635   0.25343   0.26014
 Alpha virt. eigenvalues --    0.27193   0.29998   0.30190   0.31332   0.32895
 Alpha virt. eigenvalues --    0.33225   0.36737   0.38075   0.40112   0.41569
 Alpha virt. eigenvalues --    0.44783   0.46215   0.46886   0.60601   0.64004
 Alpha virt. eigenvalues --    0.65715   0.66607   0.71850   0.72854   0.73689
 Alpha virt. eigenvalues --    0.77251   0.79454   0.81201   0.81541   0.82758
 Alpha virt. eigenvalues --    0.83492   0.84823   0.86022   0.88346   0.90826
 Alpha virt. eigenvalues --    0.91446   0.92056   0.92977   0.94639   0.95463
 Alpha virt. eigenvalues --    0.97361   0.97908   0.98729   1.01485   1.02911
 Alpha virt. eigenvalues --    1.03935   1.04827   1.06732   1.08566   1.11030
 Alpha virt. eigenvalues --    1.12202   1.17034   1.17316   1.19234   1.20933
 Alpha virt. eigenvalues --    1.22006   1.26827   1.45009   1.49014   1.51690
 Alpha virt. eigenvalues --    1.58331   1.60698   1.71059   1.71424   1.74082
 Alpha virt. eigenvalues --    1.78059   1.80722   1.84422   1.86052   2.00471
 Alpha virt. eigenvalues --    2.02731   2.11435   2.26307   2.31851   2.32721
 Alpha virt. eigenvalues --    2.38455   2.39431   2.41368   2.42051   2.43807
 Alpha virt. eigenvalues --    2.47285   2.52811   2.53013   2.54419   2.55328
 Alpha virt. eigenvalues --    2.57228   2.63379   2.69432   2.72416   2.77304
 Alpha virt. eigenvalues --    2.87110   2.88162   2.92301   3.15132   3.16721
 Alpha virt. eigenvalues --    3.21332   3.27086   3.32611   3.53072   3.64107
 Alpha virt. eigenvalues --    3.67990   3.77476   4.00327   4.09232   4.22387
 Alpha virt. eigenvalues --    4.22528   4.33299   4.34420   4.38350   4.40539
 Alpha virt. eigenvalues --    4.43820   4.45298   4.48501   4.49027   4.62519
 Alpha virt. eigenvalues --    4.64655   4.67776   4.70882   4.79355   4.87464
 Alpha virt. eigenvalues --    4.90032   4.96917   5.11583   5.13985   5.16898
 Alpha virt. eigenvalues --    5.31430   5.31752   5.49962   5.50790   5.58097
 Alpha virt. eigenvalues --    5.68218   5.73641   5.79537   6.12216   6.13728
 Alpha virt. eigenvalues --    6.34145   6.53876   6.70611   6.74320   6.83771
 Alpha virt. eigenvalues --    7.07301   7.14715   7.26998   7.28923   7.29289
 Alpha virt. eigenvalues --    7.36612   7.39950   7.55176   7.65867   7.76251
 Alpha virt. eigenvalues --    7.87446   7.97102   8.08797   8.24602   8.26701
 Alpha virt. eigenvalues --    8.76175   8.79670   8.80576   9.64167   9.81831
 Alpha virt. eigenvalues --   10.00685  10.18434  11.18345  11.60862  12.11234
 Alpha virt. eigenvalues --   13.49327  13.81542  15.80634  64.60160
          Condensed to atoms (all electrons):
               1          2          3          4          5          6
     1  O    7.884815   0.281799   0.281174   0.000152  -0.000578   0.000233
     2  H    0.281799   0.481440   0.012431  -0.000011   0.000202  -0.000040
     3  H    0.281174   0.012431   0.482708  -0.000015   0.000213  -0.000046
     4  O    0.000152  -0.000011  -0.000015   0.000109  -0.000147   0.000032
     5  H   -0.000578   0.000202   0.000213  -0.000147   0.000379  -0.000212
     6  H    0.000233  -0.000040  -0.000046   0.000032  -0.000212   0.000172
 Mulliken charges:
               1
     1  O   -0.447595
     2  H    0.224177
     3  H    0.223535
     4  O   -0.000121
     5  H    0.000142
     6  H   -0.000140
 Sum of Mulliken charges =  -0.00000
 Mulliken charges with hydrogens summed into heavy atoms:
               1
     1  O    0.000118
     4  O   -0.000118
         Mulliken charges condensed to fragments:
      1      0.000118
      2     -0.000118
 Electronic spatial extent (au):  <R**2>=            238.7438
 Charge=             -0.0000 electrons
 Dipole moment (field-independent basis, Debye):
    X=              1.6689    Y=              0.5323    Z=              0.7384  Tot=              1.9010
 Quadrupole moment (field-independent basis, Debye-Ang):
   XX=              1.7945   YY=             -4.4069   ZZ=             -6.9852
   XY=              1.1529   XZ=              2.4318   YZ=             -0.9893
 Traceless Quadrupole moment (field-independent basis, Debye-Ang):
   XX=              4.9937   YY=             -1.2077   ZZ=             -3.7860
   XY=              1.1529   XZ=              2.4318   YZ=             -0.9893
 Octapole moment (field-independent basis, Debye-Ang**2):
  XXX=            -17.1615  YYY=              0.9940  ZZZ=              0.4624  XYY=            -10.0370
  XXY=              2.2596  XXZ=              7.8608  XZZ=            -17.1329  YZZ=             -0.2074
  YYZ=              0.2806  XYZ=             -2.8250
 Hexadecapole moment (field-independent basis, Debye-Ang**3):
 XXXX=           -141.7082 YYYY=             -5.9452 ZZZZ=             -6.9135 XXXY=              3.4774
 XXXZ=             24.9118 YYYX=              2.6719 YYYZ=             -0.3046 ZZZX=              1.1262
 ZZZY=              0.0207 XXYY=            -24.7421 XXZZ=            -44.2467 YYZZ=             -2.2667
 XXYZ=             -8.1027 YYXZ=              0.8323 ZZXY=             -0.6823
 N-N= 9.157116023409D+00 E-N=-1.989268690051D+02  KE= 7.593874462168D+01
 Calling FoFJK, ICntrl=  10002127 FMM=F ISym2X=0 I1Cent= 0 IOpClX= 0 NMat=1 NMatS=1 NMatT=0.
 ***** Axes restored to original set *****
 Cartesian Forces:  Max     0.008976559 RMS     0.003694345
 CPIOFr:  IOpCl= 0 IRwI=-1 IRwCP=  731 ICalc=  1 LCPTot=       52207 Len1MO=      139218 IndFrg=      330643
 Counterpoise: doing calculation for fragment   2 using the basis set of the full-system, NewBq=T
 Basis read from rwf:  (5D, 7F)
 There are   210 symmetry adapted cartesian basis functions of A   symmetry.
 There are   184 symmetry adapted basis functions of A   symmetry.
   184 basis functions,   252 primitive gaussians,   210 cartesian basis functions
     5 alpha electrons        5 beta electrons
       nuclear repulsion energy         9.1571160456 Hartrees.
 NAtoms=    6 NActive=    6 NUniq=    6 SFac= 1.00D+00 NAtFMM=   60 NAOKFM=F Big=F
 Integral buffers will be    131072 words long.
 Raffenetti 1 integral format.
 Two-electron integral symmetry is turned on.
 One-electron integrals computed using PRISM.
 NBasis=   184 RedAO= T EigKep=  3.41D-04  NBF=   184
 NBsUse=   184 1.00D-06 EigRej= -1.00D+00 NBFU=   184
 ExpMin= 2.53D-02 ExpMax= 1.53D+04 ExpMxC= 5.22D+02 IAcc=3 IRadAn=         5 AccDes= 0.00D+00
 Harris functional with IExCor=  205 and IRadAn=       5 diagonalized for initial guess.
 HarFok:  IExCor=  205 AccDes= 0.00D+00 IRadAn=         5 IDoV= 1 UseB2=F ITyADJ=14
 ICtDFT=  3500011 ScaDFX=  1.000000  1.000000  1.000000  1.000000
 FoFCou: FMM=F IPFlag=           0 FMFlag=      100000 FMFlg1=           0
         NFxFlg=           0 DoJE=T BraDBF=F KetDBF=T FulRan=T
         wScrn=  0.000000 ICntrl=       500 IOpCl=  0 I1Cent=   200000004 NGrid=           0
         NMat0=    1 NMatS0=      1 NMatT0=    0 NMatD0=    1 NMtDS0=    0 NMtDT0=    0
 Petite list used in FoFCou.
 Keep R1 ints in memory in canonical form, NReq=149546646.
 Requested convergence on RMS density matrix=1.00D-08 within 128 cycles.
 Requested convergence on MAX density matrix=1.00D-06.
 Requested convergence on             energy=1.00D-06.
 No special actions if energy rises.
 SCF Done:  E(RHF) =  -76.0600726994     A.U. after    9 cycles
            NFock=  9  Conv=0.76D-08     -V/T= 2.0016
 ExpMin= 2.53D-02 ExpMax= 1.53D+04 ExpMxC= 5.22D+02 IAcc=3 IRadAn=         5 AccDes= 0.00D+00
 HarFok:  IExCor=  205 AccDes= 0.00D+00 IRadAn=         5 IDoV=-2 UseB2=F ITyADJ=14
 ICtDFT= 12500011 ScaDFX=  1.000000  1.000000  1.000000  1.000000
 Range of M.O.s used for correlation:     2   184
 NBasis=   184 NAE=     5 NBE=     5 NFC=     1 NFV=     0
 NROrb=    183 NOA=     4 NOB=     4 NVA=   179 NVB=   179

 **** Warning!!: The largest alpha MO coefficient is  0.15093128D+02

 Fully direct method using O(ONN) memory.
 JobTyp=1 Pass  1:  I=   2 to   3 NPSUse=  8 ParTrn=T ParDer=T DoDerP=T.
 JobTyp=1 Pass  2:  I=   4 to   5 NPSUse=  8 ParTrn=T ParDer=T DoDerP=T.
 Spin components of T(2) and E(2):
     alpha-alpha T2 =       0.8123466635D-02 E2=     -0.3255845559D-01
     alpha-beta  T2 =       0.4717798295D-01 E2=     -0.2031561405D+00
     beta-beta   T2 =       0.8123466635D-02 E2=     -0.3255845559D-01
 ANorm=    0.1031224959D+01
 E2 =    -0.2682730517D+00 EUMP2 =    -0.76328345751131D+02
          IDoAtm=111111
          Differentiating once with respect to electric field.
                with respect to dipole field.
          Differentiating once with respect to nuclear coordinates.
 Keep R1 ints in memory in canonical form, NReq=149547905.
          There are     1 degrees of freedom in the 1st order CPHF.  IDoFFX=0 NUNeed=     1.
 LinEq1:  Iter=  0 NonCon=     1 RMS=3.22D-03 Max=3.66D-02 NDo=     1
 AX will form     1 AO Fock derivatives at one time.
 LinEq1:  Iter=  1 NonCon=     1 RMS=4.29D-04 Max=4.09D-03 NDo=     1
 LinEq1:  Iter=  2 NonCon=     1 RMS=1.56D-04 Max=1.41D-03 NDo=     1
 LinEq1:  Iter=  3 NonCon=     1 RMS=4.17D-05 Max=3.81D-04 NDo=     1
 LinEq1:  Iter=  4 NonCon=     1 RMS=6.37D-06 Max=4.90D-05 NDo=     1
 LinEq1:  Iter=  5 NonCon=     1 RMS=1.19D-06 Max=8.17D-06 NDo=     1
 LinEq1:  Iter=  6 NonCon=     1 RMS=1.73D-07 Max=1.06D-06 NDo=     1
 LinEq1:  Iter=  7 NonCon=     1 RMS=1.89D-08 Max=2.05D-07 NDo=     1
 LinEq1:  Iter=  8 NonCon=     1 RMS=2.33D-09 Max=3.18D-08 NDo=     1
 LinEq1:  Iter=  9 NonCon=     1 RMS=2.27D-10 Max=2.13D-09 NDo=     1
 LinEq1:  Iter= 10 NonCon=     0 RMS=1.72D-11 Max=1.53D-10 NDo=     1
 Linear equations converged to 1.000D-10 1.000D-09 after    10 iterations.
 End of Minotr F.D. properties file   721 does not exist.
 End of Minotr F.D. properties file   722 does not exist.
 End of Minotr F.D. properties file   788 does not exist.

 **********************************************************************

            Population analysis using the SCF Density.

 **********************************************************************

 Orbital symmetries:
       Occupied  (A) (A) (A) (A) (A)
       Virtual   (A) (A) (A) (A) (A) (A) (A) (A) (A) (A) (A) (A)
                 (A) (A) (A) (A) (A) (A) (A) (A) (A) (A) (A) (A)
                 (A) (A) (A) (A) (A) (A) (A) (A) (A) (A) (A) (A)
                 (A) (A) (A) (A) (A) (A) (A) (A) (A) (A) (A) (A)
                 (A) (A) (A) (A) (A) (A) (A) (A) (A) (A) (A) (A)
                 (A) (A) (A) (A) (A) (A) (A) (A) (A) (A) (A) (A)
                 (A) (A) (A) (A) (A) (A) (A) (A) (A) (A) (A) (A)
                 (A) (A) (A) (A) (A) (A) (A) (A) (A) (A) (A) (A)
                 (A) (A) (A) (A) (A) (A) (A) (A) (A) (A) (A) (A)
                 (A) (A) (A) (A) (A) (A) (A) (A) (A) (A) (A) (A)
                 (A) (A) (A) (A) (A) (A) (A) (A) (A) (A) (A) (A)
                 (A) (A) (A) (A) (A) (A) (A) (A) (A) (A) (A) (A)
                 (A) (A) (A) (A) (A) (A) (A) (A) (A) (A) (A) (A)
                 (A) (A) (A) (A) (A) (A) (A) (A) (A) (A) (A) (A)
                 (A) (A) (A) (A) (A) (A) (A) (A) (A) (A) (A)
 The electronic state is 1-A.
 Alpha  occ. eigenvalues --  -20.56542  -1.34869  -0.72565  -0.57474  -0.50864
 Alpha virt. eigenvalues --    0.02080   0.03827   0.04877   0.06017   0.11387
 Alpha virt. eigenvalues --    0.12588   0.13888   0.15450   0.16235   0.16741
 Alpha virt. eigenvalues --    0.18171   0.19537   0.23107   0.24676   0.26535
 Alpha virt. eigenvalues --    0.27485   0.28387   0.29026   0.30717   0.32308
 Alpha virt. eigenvalues --    0.32608   0.35999   0.37778   0.39039   0.39655
 Alpha virt. eigenvalues --    0.42567   0.45491   0.50666   0.59798   0.62777
 Alpha virt. eigenvalues --    0.65994   0.68355   0.71279   0.72697   0.73226
 Alpha virt. eigenvalues --    0.74744   0.75967   0.79338   0.79957   0.81691
 Alpha virt. eigenvalues --    0.83257   0.84015   0.84594   0.88934   0.89631
 Alpha virt. eigenvalues --    0.90757   0.91611   0.92013   0.92770   0.93494
 Alpha virt. eigenvalues --    0.96023   0.96885   0.97427   0.97858   1.03043
 Alpha virt. eigenvalues --    1.03551   1.04917   1.08112   1.09721   1.11218
 Alpha virt. eigenvalues --    1.14872   1.15563   1.17515   1.19347   1.21031
 Alpha virt. eigenvalues --    1.21875   1.27347   1.41622   1.47345   1.52275
 Alpha virt. eigenvalues --    1.58921   1.59876   1.69670   1.70185   1.72209
 Alpha virt. eigenvalues --    1.77709   1.80396   1.82062   1.82731   2.00643
 Alpha virt. eigenvalues --    2.01653   2.12195   2.25956   2.32332   2.32748
 Alpha virt. eigenvalues --    2.34567   2.37341   2.40969   2.41921   2.45507
 Alpha virt. eigenvalues --    2.49185   2.49775   2.52123   2.52300   2.54016
 Alpha virt. eigenvalues --    2.56314   2.63362   2.71122   2.71187   2.77184
 Alpha virt. eigenvalues --    2.87414   2.88341   2.89977   3.14684   3.15299
 Alpha virt. eigenvalues --    3.19575   3.25773   3.31110   3.51009   3.64144
 Alpha virt. eigenvalues --    3.64261   3.79045   4.00280   4.09300   4.21993
 Alpha virt. eigenvalues --    4.22870   4.31912   4.34418   4.38247   4.39521
 Alpha virt. eigenvalues --    4.43543   4.44236   4.48610   4.48950   4.60743
 Alpha virt. eigenvalues --    4.63518   4.66253   4.71384   4.79331   4.86268
 Alpha virt. eigenvalues --    4.89336   4.95642   5.12062   5.12587   5.16953
 Alpha virt. eigenvalues --    5.31673   5.33321   5.49158   5.50014   5.56698
 Alpha virt. eigenvalues --    5.66770   5.73882   5.77515   6.10564   6.12207
 Alpha virt. eigenvalues --    6.32563   6.54475   6.70577   6.71162   6.83916
 Alpha virt. eigenvalues --    7.05729   7.14239   7.25447   7.28505   7.29592
 Alpha virt. eigenvalues --    7.36575   7.39889   7.55619   7.64628   7.74726
 Alpha virt. eigenvalues --    7.88255   7.96849   8.07956   8.23165   8.24931
 Alpha virt. eigenvalues --    8.76680   8.78002   8.78512   9.63490   9.81956
 Alpha virt. eigenvalues --    9.99294  10.17346  11.16855  11.59393  12.09491
 Alpha virt. eigenvalues --   13.46341  13.77632  15.82601  64.55824
          Condensed to atoms (all electrons):
               1          2          3          4          5          6
     1  O    0.000123  -0.000052  -0.000039  -0.000245  -0.000403  -0.000011
     2  H   -0.000052   0.000066  -0.000022   0.000015   0.000022  -0.000005
     3  H   -0.000039  -0.000022   0.000063   0.000063  -0.000054  -0.000026
     4  O   -0.000245   0.000015   0.000063   7.910819   0.265355   0.276316
     5  H   -0.000403   0.000022  -0.000054   0.265355   0.476133   0.023613
     6  H   -0.000011  -0.000005  -0.000026   0.276316   0.023613   0.483745
 Mulliken charges:
               1
     1  O    0.000628
     2  H   -0.000024
     3  H    0.000016
     4  O   -0.452322
     5  H    0.235334
     6  H    0.216369
 Sum of Mulliken charges =  -0.00000
 Mulliken charges with hydrogens summed into heavy atoms:
               1
     1  O    0.000620
     4  O   -0.000620
         Mulliken charges condensed to fragments:
      1      0.000620
      2     -0.000620
 Electronic spatial extent (au):  <R**2>=            248.4836
 Charge=             -0.0000 electrons
 Dipole moment (field-independent basis, Debye):
    X=              0.9343    Y=              1.1986    Z=              1.1415  Tot=              1.9007
 Quadrupole moment (field-independent basis, Debye-Ang):
   XX=             -9.2886   YY=             -6.6758   ZZ=             -6.7336
   XY=             -3.7453   XZ=             -3.5793   YZ=              0.8682
 Traceless Quadrupole moment (field-independent basis, Debye-Ang):
   XX=             -1.7226   YY=              0.8902   ZZ=              0.8324
   XY=             -3.7453   XZ=             -3.5793   YZ=              0.8682
 Octapole moment (field-independent basis, Debye-Ang**2):
  XXX=             54.0382  YYY=              0.9240  ZZZ=              0.7502  XYY=             16.5773
  XXY=             11.6875  XXZ=             11.1629  XZZ=             16.7399  YZZ=              0.5190
  YYZ=              0.4782  XYZ=             -2.4881
 Hexadecapole moment (field-independent basis, Debye-Ang**3):
 XXXX=           -256.3820 YYYY=             -6.9557 ZZZZ=             -6.9415 XXXY=            -36.2758
 XXXZ=            -34.5539 YYYX=             -2.4596 YYYZ=              0.0446 ZZZX=             -2.0008
 ZZZY=              0.0275 XXYY=            -43.4850 XXZZ=            -43.9420 YYZZ=             -2.1468
 XXYZ=              7.1451 YYXZ=             -1.3921 ZZXY=             -1.4879
 N-N= 9.157116045615D+00 E-N=-1.989268399784D+02  KE= 7.593874062630D+01
 Calling FoFJK, ICntrl=  10002127 FMM=F ISym2X=0 I1Cent= 0 IOpClX= 0 NMat=1 NMatS=1 NMatT=0.
 ***** Axes restored to original set *****
 Cartesian Forces:  Max     0.009507628 RMS     0.003690870
 CPIOFr:  IOpCl= 0 IRwI=-1 IRwCP=  731 ICalc=  2 LCPTot=       52207 Len1MO=      139218 IndFrg=      469861
 Counterpoise: doing calculation for fragment   1 using the basis set of the fragment.
 Basis read from rwf:  (5D, 7F)
 There are   105 symmetry adapted cartesian basis functions of A   symmetry.
 There are    92 symmetry adapted basis functions of A   symmetry.
    92 basis functions,   126 primitive gaussians,   105 cartesian basis functions
     5 alpha electrons        5 beta electrons
       nuclear repulsion energy         9.1571160234 Hartrees.
 NAtoms=    6 NActive=    3 NUniq=    3 SFac= 1.00D+00 NAtFMM=   60 NAOKFM=F Big=F
 Integral buffers will be    131072 words long.
 Raffenetti 1 integral format.
 Two-electron integral symmetry is turned on.
 One-electron integrals computed using PRISM.
 NBasis=    92 RedAO= T EigKep=  3.77D-04  NBF=    92
 NBsUse=    92 1.00D-06 EigRej= -1.00D+00 NBFU=    92
 ExpMin= 2.53D-02 ExpMax= 1.53D+04 ExpMxC= 5.22D+02 IAcc=3 IRadAn=         5 AccDes= 0.00D+00
 Harris functional with IExCor=  205 and IRadAn=       5 diagonalized for initial guess.
 HarFok:  IExCor=  205 AccDes= 0.00D+00 IRadAn=         5 IDoV= 1 UseB2=F ITyADJ=14
 ICtDFT=  3500011 ScaDFX=  1.000000  1.000000  1.000000  1.000000
 FoFCou: FMM=F IPFlag=           0 FMFlag=      100000 FMFlg1=           0
         NFxFlg=           0 DoJE=T BraDBF=F KetDBF=T FulRan=T
         wScrn=  0.000000 ICntrl=       500 IOpCl=  0 I1Cent=   200000004 NGrid=           0
         NMat0=    1 NMatS0=      1 NMatT0=    0 NMatD0=    1 NMtDS0=    0 NMtDT0=    0
 Petite list used in FoFCou.
 Keep R1 ints in memory in canonical form, NReq=13070685.
 Requested convergence on RMS density matrix=1.00D-08 within 128 cycles.
 Requested convergence on MAX density matrix=1.00D-06.
 Requested convergence on             energy=1.00D-06.
 No special actions if energy rises.
 SCF Done:  E(RHF) =  -76.0600661839     A.U. after   10 cycles
            NFock= 10  Conv=0.38D-08     -V/T= 2.0016
 ExpMin= 2.53D-02 ExpMax= 1.53D+04 ExpMxC= 5.22D+02 IAcc=3 IRadAn=         5 AccDes= 0.00D+00
 HarFok:  IExCor=  205 AccDes= 0.00D+00 IRadAn=         5 IDoV=-2 UseB2=F ITyADJ=14
 ICtDFT= 12500011 ScaDFX=  1.000000  1.000000  1.000000  1.000000
 Range of M.O.s used for correlation:     2    92
 NBasis=    92 NAE=     5 NBE=     5 NFC=     1 NFV=     0
 NROrb=     91 NOA=     4 NOB=     4 NVA=    87 NVB=    87

 **** Warning!!: The largest alpha MO coefficient is  0.16034587D+02

 Fully direct method using O(ONN) memory.
 JobTyp=1 Pass  1:  I=   2 to   5 NPSUse=  8 ParTrn=T ParDer=T DoDerP=T.
 Spin components of T(2) and E(2):
     alpha-alpha T2 =       0.8123009700D-02 E2=     -0.3255738424D-01
     alpha-beta  T2 =       0.4717558867D-01 E2=     -0.2031420633D+00
     beta-beta   T2 =       0.8123009700D-02 E2=     -0.3255738424D-01
 ANorm=    0.1031223355D+01
 E2 =    -0.2682568318D+00 EUMP2 =    -0.76328323015699D+02
          IDoAtm=111000
          Differentiating once with respect to electric field.
                with respect to dipole field.
          Differentiating once with respect to nuclear coordinates.
 Keep R1 ints in memory in canonical form, NReq=13071744.
          There are     1 degrees of freedom in the 1st order CPHF.  IDoFFX=0 NUNeed=     1.
 LinEq1:  Iter=  0 NonCon=     1 RMS=4.62D-03 Max=4.90D-02 NDo=     1
 AX will form     1 AO Fock derivatives at one time.
 LinEq1:  Iter=  1 NonCon=     1 RMS=6.15D-04 Max=4.64D-03 NDo=     1
 LinEq1:  Iter=  2 NonCon=     1 RMS=2.24D-04 Max=1.91D-03 NDo=     1
 LinEq1:  Iter=  3 NonCon=     1 RMS=5.99D-05 Max=4.56D-04 NDo=     1
 LinEq1:  Iter=  4 NonCon=     1 RMS=9.10D-06 Max=5.76D-05 NDo=     1
 LinEq1:  Iter=  5 NonCon=     1 RMS=1.70D-06 Max=1.16D-05 NDo=     1
 LinEq1:  Iter=  6 NonCon=     1 RMS=2.45D-07 Max=1.73D-06 NDo=     1
 LinEq1:  Iter=  7 NonCon=     1 RMS=2.71D-08 Max=2.37D-07 NDo=     1
 LinEq1:  Iter=  8 NonCon=     1 RMS=3.32D-09 Max=3.47D-08 NDo=     1
 LinEq1:  Iter=  9 NonCon=     1 RMS=3.25D-10 Max=2.15D-09 NDo=     1
 LinEq1:  Iter= 10 NonCon=     0 RMS=2.41D-11 Max=2.02D-10 NDo=     1
 Linear equations converged to 1.000D-10 1.000D-09 after    10 iterations.
 End of Minotr F.D. properties file   721 does not exist.
 End of Minotr F.D. properties file   722 does not exist.
 End of Minotr F.D. properties file   788 does not exist.

 **********************************************************************

            Population analysis using the SCF Density.

 **********************************************************************

 Orbital symmetries:
       Occupied  (A) (A) (A) (A) (A)
       Virtual   (A) (A) (A) (A) (A) (A) (A) (A) (A) (A) (A) (A)
                 (A) (A) (A) (A) (A) (A) (A) (A) (A) (A) (A) (A)
                 (A) (A) (A) (A) (A) (A) (A) (A) (A) (A) (A) (A)
                 (A) (A) (A) (A) (A) (A) (A) (A) (A) (A) (A) (A)
                 (A) (A) (A) (A) (A) (A) (A) (A) (A) (A) (A) (A)
                 (A) (A) (A) (A) (A) (A) (A) (A) (A) (A) (A) (A)
                 (A) (A) (A) (A) (A) (A) (A) (A) (A) (A) (A) (A)
                 (A) (A) (A)
 The electronic state is 1-A.
 Alpha  occ. eigenvalues --  -20.56541  -1.34869  -0.72564  -0.57474  -0.50863
 Alpha virt. eigenvalues --    0.02971   0.04737   0.13662   0.15781   0.17389
 Alpha virt. eigenvalues --    0.18179   0.22899   0.24416   0.26340   0.30577
 Alpha virt. eigenvalues --    0.31394   0.36499   0.43723   0.46633   0.60281
 Alpha virt. eigenvalues --    0.65276   0.71167   0.71844   0.73094   0.82631
 Alpha virt. eigenvalues --    0.84295   0.89018   0.91210   0.91959   0.92570
 Alpha virt. eigenvalues --    0.92717   0.97352   1.02206   1.04456   1.08526
 Alpha virt. eigenvalues --    1.11511   1.17073   1.17503   1.26069   1.51476
 Alpha virt. eigenvalues --    1.57096   1.59701   1.77255   1.79668   2.00431
 Alpha virt. eigenvalues --    2.11268   2.25794   2.31831   2.31986   2.40940
 Alpha virt. eigenvalues --    2.41114   2.43710   2.46955   2.69184   2.70565
 Alpha virt. eigenvalues --    2.76449   2.86735   2.88112   3.63721   3.77009
 Alpha virt. eigenvalues --    4.00253   4.08740   4.21645   4.22180   4.34369
 Alpha virt. eigenvalues --    4.38176   4.39498   4.43246   4.48376   4.69720
 Alpha virt. eigenvalues --    4.79275   5.11524   5.16876   5.31392   5.31588
 Alpha virt. eigenvalues --    5.49963   5.72923   6.11952   6.53669   6.70563
 Alpha virt. eigenvalues --    6.83724   7.14165   7.25361   7.28217   7.29277
 Alpha virt. eigenvalues --    7.36509   7.39754   7.55021   7.87420   7.96683
 Alpha virt. eigenvalues --    8.76157  15.79509
          Condensed to atoms (all electrons):
               1          2          3
     1  O    7.895525   0.273797   0.273797
     2  H    0.273797   0.487981   0.016662
     3  H    0.273797   0.016662   0.487981
 Mulliken charges:
               1
     1  O   -0.443119
     2  H    0.221560
     3  H    0.221560
     4  O    0.000000
     5  H    0.000000
     6  H    0.000000
 Sum of Mulliken charges =   0.00000
 Mulliken charges with hydrogens summed into heavy atoms:
               1
     1  O    0.000000
     4  O    0.000000
         Mulliken charges condensed to fragments:
      1      0.000000
      2      0.000000
 Electronic spatial extent (au):  <R**2>=            238.7468
 Charge=             -0.0000 electrons
 Dipole moment (field-independent basis, Debye):
    X=              1.6683    Y=              0.5323    Z=              0.7384  Tot=              1.9004
 Quadrupole moment (field-independent basis, Debye-Ang):
   XX=              1.7921   YY=             -4.4076   ZZ=             -6.9862
   XY=              1.1530   XZ=              2.4323   YZ=             -0.9895
 Traceless Quadrupole moment (field-independent basis, Debye-Ang):
   XX=              4.9927   YY=             -1.2070   ZZ=             -3.7856
   XY=              1.1530   XZ=              2.4323   YZ=             -0.9895
 Octapole moment (field-independent basis, Debye-Ang**2):
  XXX=            -17.1720  YYY=              0.9939  ZZZ=              0.4625  XYY=            -10.0389
  XXY=              2.2598  XXZ=              7.8634  XZZ=            -17.1351  YZZ=             -0.2073
  YYZ=              0.2807  XYZ=             -2.8254
 Hexadecapole moment (field-independent basis, Debye-Ang**3):
 XXXX=           -141.7562 YYYY=             -5.9497 ZZZZ=             -6.9189 XXXY=              3.4776
 XXXZ=             24.9217 YYYX=              2.6715 YYYZ=             -0.3049 ZZZX=              1.1291
 ZZZY=              0.0201 XXYY=            -24.7488 XXZZ=            -44.2542 YYZZ=             -2.2684
 XXYZ=             -8.1035 YYXZ=              0.8332 ZZXY=             -0.6818
 N-N= 9.157116023409D+00 E-N=-1.989269547028D+02  KE= 7.593881385305D+01
 Calling FoFJK, ICntrl=  10002127 FMM=F ISym2X=0 I1Cent= 0 IOpClX= 0 NMat=1 NMatS=1 NMatT=0.
 ***** Axes restored to original set *****
 Cartesian Forces:  Max     0.008967996 RMS     0.003692291
 CPIOFr:  IOpCl= 0 IRwI=-1 IRwCP=  731 ICalc=  3 LCPTot=       52207 Len1MO=      139218 IndFrg=      609079
 Counterpoise: doing calculation for fragment   2 using the basis set of the fragment.
 Basis read from rwf:  (5D, 7F)
 There are   105 symmetry adapted cartesian basis functions of A   symmetry.
 There are    92 symmetry adapted basis functions of A   symmetry.
    92 basis functions,   126 primitive gaussians,   105 cartesian basis functions
     5 alpha electrons        5 beta electrons
       nuclear repulsion energy         9.1571160456 Hartrees.
 NAtoms=    6 NActive=    3 NUniq=    3 SFac= 1.00D+00 NAtFMM=   60 NAOKFM=F Big=F
 Integral buffers will be    131072 words long.
 Raffenetti 1 integral format.
 Two-electron integral symmetry is turned on.
 One-electron integrals computed using PRISM.
 NBasis=    92 RedAO= T EigKep=  3.77D-04  NBF=    92
 NBsUse=    92 1.00D-06 EigRej= -1.00D+00 NBFU=    92
 ExpMin= 2.53D-02 ExpMax= 1.53D+04 ExpMxC= 5.22D+02 IAcc=3 IRadAn=         5 AccDes= 0.00D+00
 Harris functional with IExCor=  205 and IRadAn=       5 diagonalized for initial guess.
 HarFok:  IExCor=  205 AccDes= 0.00D+00 IRadAn=         5 IDoV= 1 UseB2=F ITyADJ=14
 ICtDFT=  3500011 ScaDFX=  1.000000  1.000000  1.000000  1.000000
 FoFCou: FMM=F IPFlag=           0 FMFlag=      100000 FMFlg1=           0
         NFxFlg=           0 DoJE=T BraDBF=F KetDBF=T FulRan=T
         wScrn=  0.000000 ICntrl=       500 IOpCl=  0 I1Cent=   200000004 NGrid=           0
         NMat0=    1 NMatS0=      1 NMatT0=    0 NMatD0=    1 NMtDS0=    0 NMtDT0=    0
 Petite list used in FoFCou.
 Keep R1 ints in memory in canonical form, NReq=13070685.
 Requested convergence on RMS density matrix=1.00D-08 within 128 cycles.
 Requested convergence on MAX density matrix=1.00D-06.
 Requested convergence on             energy=1.00D-06.
 No special actions if energy rises.
 SCF Done:  E(RHF) =  -76.0600661840     A.U. after   10 cycles
            NFock= 10  Conv=0.38D-08     -V/T= 2.0016
 ExpMin= 2.53D-02 ExpMax= 1.53D+04 ExpMxC= 5.22D+02 IAcc=3 IRadAn=         5 AccDes= 0.00D+00
 HarFok:  IExCor=  205 AccDes= 0.00D+00 IRadAn=         5 IDoV=-2 UseB2=F ITyADJ=14
 ICtDFT= 12500011 ScaDFX=  1.000000  1.000000  1.000000  1.000000
 Range of M.O.s used for correlation:     2    92
 NBasis=    92 NAE=     5 NBE=     5 NFC=     1 NFV=     0
 NROrb=     91 NOA=     4 NOB=     4 NVA=    87 NVB=    87

 **** Warning!!: The largest alpha MO coefficient is  0.16034587D+02

 Fully direct method using O(ONN) memory.
 JobTyp=1 Pass  1:  I=   2 to   5 NPSUse=  8 ParTrn=T ParDer=T DoDerP=T.
 Spin components of T(2) and E(2):
     alpha-alpha T2 =       0.8123009679D-02 E2=     -0.3255738422D-01
     alpha-beta  T2 =       0.4717558853D-01 E2=     -0.2031420632D+00
     beta-beta   T2 =       0.8123009679D-02 E2=     -0.3255738422D-01
 ANorm=    0.1031223355D+01
 E2 =    -0.2682568316D+00 EUMP2 =    -0.76328323015602D+02
          IDoAtm=000111
          Differentiating once with respect to electric field.
                with respect to dipole field.
          Differentiating once with respect to nuclear coordinates.
 Keep R1 ints in memory in canonical form, NReq=13071744.
          There are     1 degrees of freedom in the 1st order CPHF.  IDoFFX=0 NUNeed=     1.
 LinEq1:  Iter=  0 NonCon=     1 RMS=4.62D-03 Max=4.90D-02 NDo=     1
 AX will form     1 AO Fock derivatives at one time.
 LinEq1:  Iter=  1 NonCon=     1 RMS=6.15D-04 Max=4.64D-03 NDo=     1
 LinEq1:  Iter=  2 NonCon=     1 RMS=2.24D-04 Max=1.91D-03 NDo=     1
 LinEq1:  Iter=  3 NonCon=     1 RMS=5.99D-05 Max=4.56D-04 NDo=     1
 LinEq1:  Iter=  4 NonCon=     1 RMS=9.10D-06 Max=5.76D-05 NDo=     1
 LinEq1:  Iter=  5 NonCon=     1 RMS=1.70D-06 Max=1.16D-05 NDo=     1
 LinEq1:  Iter=  6 NonCon=     1 RMS=2.45D-07 Max=1.73D-06 NDo=     1
 LinEq1:  Iter=  7 NonCon=     1 RMS=2.71D-08 Max=2.37D-07 NDo=     1
 LinEq1:  Iter=  8 NonCon=     1 RMS=3.32D-09 Max=3.47D-08 NDo=     1
 LinEq1:  Iter=  9 NonCon=     1 RMS=3.25D-10 Max=2.15D-09 NDo=     1
 LinEq1:  Iter= 10 NonCon=     0 RMS=2.41D-11 Max=2.02D-10 NDo=     1
 Linear equations converged to 1.000D-10 1.000D-09 after    10 iterations.
 End of Minotr F.D. properties file   721 does not exist.
 End of Minotr F.D. properties file   722 does not exist.
 End of Minotr F.D. properties file   788 does not exist.

 **********************************************************************

            Population analysis using the SCF Density.

 **********************************************************************

 Orbital symmetries:
       Occupied  (A) (A) (A) (A) (A)
       Virtual   (A) (A) (A) (A) (A) (A) (A) (A) (A) (A) (A) (A)
                 (A) (A) (A) (A) (A) (A) (A) (A) (A) (A) (A) (A)
                 (A) (A) (A) (A) (A) (A) (A) (A) (A) (A) (A) (A)
                 (A) (A) (A) (A) (A) (A) (A) (A) (A) (A) (A) (A)
                 (A) (A) (A) (A) (A) (A) (A) (A) (A) (A) (A) (A)
                 (A) (A) (A) (A) (A) (A) (A) (A) (A) (A) (A) (A)
                 (A) (A) (A) (A) (A) (A) (A) (A) (A) (A) (A) (A)
                 (A) (A) (A)
 The electronic state is 1-A.
 Alpha  occ. eigenvalues --  -20.56541  -1.34869  -0.72564  -0.57474  -0.50863
 Alpha virt. eigenvalues --    0.02971   0.04737   0.13662   0.15781   0.17389
 Alpha virt. eigenvalues --    0.18179   0.22899   0.24416   0.26340   0.30577
 Alpha virt. eigenvalues --    0.31394   0.36499   0.43723   0.46633   0.60281
 Alpha virt. eigenvalues --    0.65276   0.71167   0.71844   0.73094   0.82631
 Alpha virt. eigenvalues --    0.84295   0.89018   0.91210   0.91959   0.92570
 Alpha virt. eigenvalues --    0.92717   0.97352   1.02206   1.04456   1.08526
 Alpha virt. eigenvalues --    1.11511   1.17073   1.17503   1.26069   1.51476
 Alpha virt. eigenvalues --    1.57096   1.59701   1.77255   1.79668   2.00431
 Alpha virt. eigenvalues --    2.11268   2.25794   2.31831   2.31986   2.40940
 Alpha virt. eigenvalues --    2.41114   2.43710   2.46955   2.69184   2.70565
 Alpha virt. eigenvalues --    2.76449   2.86735   2.88112   3.63721   3.77009
 Alpha virt. eigenvalues --    4.00253   4.08740   4.21645   4.22180   4.34369
 Alpha virt. eigenvalues --    4.38176   4.39498   4.43246   4.48376   4.69720
 Alpha virt. eigenvalues --    4.79275   5.11524   5.16876   5.31392   5.31588
 Alpha virt. eigenvalues --    5.49963   5.72923   6.11952   6.53669   6.70563
 Alpha virt. eigenvalues --    6.83724   7.14165   7.25361   7.28217   7.29277
 Alpha virt. eigenvalues --    7.36509   7.39754   7.55021   7.87420   7.96683
 Alpha virt. eigenvalues --    8.76157  15.79509
          Condensed to atoms (all electrons):
               4          5          6
     4  O    7.895525   0.273797   0.273797
     5  H    0.273797   0.487981   0.016662
     6  H    0.273797   0.016662   0.487981
 Mulliken charges:
               1
     1  O    0.000000
     2  H    0.000000
     3  H    0.000000
     4  O   -0.443119
     5  H    0.221560
     6  H    0.221560
 Sum of Mulliken charges =  -0.00000
 Mulliken charges with hydrogens summed into heavy atoms:
               1
     1  O    0.000000
     4  O   -0.000000
         Mulliken charges condensed to fragments:
      1      0.000000
      2     -0.000000
 Electronic spatial extent (au):  <R**2>=            248.4836
 Charge=             -0.0000 electrons
 Dipole moment (field-independent basis, Debye):
    X=              0.9342    Y=              1.1984    Z=              1.1414  Tot=              1.9004
 Quadrupole moment (field-independent basis, Debye-Ang):
   XX=             -9.2889   YY=             -6.6756   ZZ=             -6.7335
   XY=             -3.7448   XZ=             -3.5788   YZ=              0.8683
 Traceless Quadrupole moment (field-independent basis, Debye-Ang):
   XX=             -1.7229   YY=              0.8904   ZZ=              0.8325
   XY=             -3.7448   XZ=             -3.5788   YZ=              0.8683
 Octapole moment (field-independent basis, Debye-Ang**2):
  XXX=             54.0396  YYY=              0.9237  ZZZ=              0.7500  XYY=             16.5773
  XXY=             11.6857  XXZ=             11.1612  XZZ=             16.7400  YZZ=              0.5190
  YYZ=              0.4781  XYZ=             -2.4885
 Hexadecapole moment (field-independent basis, Debye-Ang**3):
 XXXX=           -256.3858 YYYY=             -6.9562 ZZZZ=             -6.9419 XXXY=            -36.2693
 XXXZ=            -34.5484 YYYX=             -2.4585 YYYZ=              0.0444 ZZZX=             -2.0000
 ZZZY=              0.0274 XXYY=            -43.4865 XXZZ=            -43.9437 YYZZ=             -2.1469
 XXYZ=              7.1468 YYXZ=             -1.3918 ZZXY=             -1.4877
 N-N= 9.157116045615D+00 E-N=-1.989269547519D+02  KE= 7.593881386178D+01
 Calling FoFJK, ICntrl=  10002127 FMM=F ISym2X=0 I1Cent= 0 IOpClX= 0 NMat=1 NMatS=1 NMatT=0.
 ***** Axes restored to original set *****
 Cartesian Forces:  Max     0.009511847 RMS     0.003692291
 CPIOFr:  IOpCl= 0 IRwI=-1 IRwCP=  731 ICalc=  4 LCPTot=       52207 Len1MO=      139218 IndFrg=      748297
 CPIOFr:  IOpCl= 0 IRwI=-2 IRwCP=  731 ICalc=  0 LCPTot=       52207 Len1MO=      139218 IndFrg=      191425
 Counterpoise corrected energy =    -152.657751794261
                   BSSE energy =       0.000039725178
              sum of fragments =    -152.656646031301
           complexation energy =      -0.72 kcal/mole (raw)
           complexation energy =      -0.69 kcal/mole (corrected)
 Rotating derivatives to standard orientation.
 ***** Axes restored to original set *****
 -------------------------------------------------------------------
 Center     Atomic             Integrated Forces (Hartrees/Bohr)
 Number     Number              X              Y              Z
 -------------------------------------------------------------------
      1        8          -0.006847557   -0.009163837    0.000608612
      2        1          -0.001366571    0.007632055   -0.000078285
      3        1           0.007867966    0.001323128   -0.000224374
      4        8          -0.003075517   -0.009747184   -0.004290626
      5        1          -0.001305115    0.003873816    0.006163007
      6        1           0.004726794    0.006082023   -0.002178334
 -------------------------------------------------------------------
 Integrated Cartesian Forces:  Max     0.009747184 RMS     0.005253095

 GradGradGradGradGradGradGradGradGradGradGradGradGradGradGradGradGradGrad
 Berny optimization.
 FormGI is forming the generalized inverse of G from B-inverse, IUseBI=4.
 Internal  Forces:  Max     0.014188526 RMS     0.004915986
 Search for a local minimum.
 Step number   1 out of a maximum of   50
 All quantities printed in internal units (Hartrees-Bohrs-Radians)
 Mixed Optimization -- RFO/linear search
 Second derivative matrix not updated -- first step.
 The second derivative matrix:
                          R1        R2        R3        R4        R5
           R1           0.55473
           R2           0.00000   0.55473
           R3           0.00000   0.00000   0.00453
           R4           0.00000   0.00000   0.00000   0.55473
           R5           0.00000   0.00000   0.00000   0.00000   0.55473
           A1           0.00000   0.00000   0.00000   0.00000   0.00000
           A2           0.00000   0.00000   0.00000   0.00000   0.00000
           A3           0.00000   0.00000   0.00000   0.00000   0.00000
           A4           0.00000   0.00000   0.00000   0.00000   0.00000
           A5           0.00000   0.00000   0.00000   0.00000   0.00000
           A6           0.00000   0.00000   0.00000   0.00000   0.00000
           D1           0.00000   0.00000   0.00000   0.00000   0.00000
           D2           0.00000   0.00000   0.00000   0.00000   0.00000
           D3           0.00000   0.00000   0.00000   0.00000   0.00000
                          A1        A2        A3        A4        A5
           A1           0.16000
           A2           0.00000   0.16000
           A3           0.00000   0.00000   0.16000
           A4           0.00000   0.00000   0.00000   0.16000
           A5           0.00000   0.00000   0.00000   0.00000   0.01558
           A6           0.00000   0.00000   0.00000   0.00000   0.00000
           D1           0.00000   0.00000   0.00000   0.00000   0.00000
           D2           0.00000   0.00000   0.00000   0.00000   0.00000
           D3           0.00000   0.00000   0.00000   0.00000   0.00000
                          A6        D1        D2        D3
           A6           0.01558
           D1           0.00000   0.01558
           D2           0.00000   0.00000   0.00230
           D3           0.00000   0.00000   0.00000   0.00230
 ITU=  0
     Eigenvalues ---    0.00230   0.00453   0.01501   0.01558   0.02127
     Eigenvalues ---    0.14626   0.16000   0.16000   0.55472   0.55473
     Eigenvalues ---    0.55473   0.55473
 RFO step:  Lambda=-2.29859364D-03 EMin= 2.30000000D-03
 Linear search not attempted -- first point.
 Iteration  1 RMS(Cart)=  0.06247888 RMS(Int)=  0.00294954
 Iteration  2 RMS(Cart)=  0.00253890 RMS(Int)=  0.00060311
 Iteration  3 RMS(Cart)=  0.00000172 RMS(Int)=  0.00060311
 Iteration  4 RMS(Cart)=  0.00000000 RMS(Int)=  0.00060311
 Variable       Old X    -DE/DX   Delta X   Delta X   Delta X     New X
                                 (Linear)    (Quad)   (Total)
    R1        1.81414  -0.00137   0.00000  -0.00245  -0.00245   1.81168
    R2        1.81414  -0.00138   0.00000  -0.00248  -0.00248   1.81166
    R3        7.61142  -0.00050   0.00000  -0.07175  -0.07175   7.53966
    R4        1.81414  -0.00088   0.00000  -0.00162  -0.00162   1.81252
    R5        1.81414  -0.00171   0.00000  -0.00306  -0.00306   1.81108
    A1        1.91114  -0.00917   0.00000  -0.07218  -0.07262   1.83852
    A2        2.24485   0.00380   0.00000   0.01489   0.01360   2.25845
    A3        1.96340   0.00461   0.00000   0.01587   0.01530   1.97870
    A4        1.91114  -0.01419   0.00000  -0.08742  -0.08742   1.82371
    A5        3.25417  -0.00000   0.00000  -0.02332  -0.02318   3.23099
    A6        3.14159  -0.00010   0.00000  -0.00157  -0.00159   3.14000
    D1       -2.61258  -0.00018   0.00000   0.05411   0.05267  -2.55991
    D2        1.68787  -0.00222   0.00000  -0.05695  -0.05760   1.63027
    D3       -0.82289   0.00216   0.00000   0.04691   0.04756  -0.77533
         Item               Value     Threshold  Converged?
 Maximum Force            0.014189     0.000450     NO 
 RMS     Force            0.004916     0.000300     NO 
 Maximum Displacement     0.144370     0.001800     NO 
 RMS     Displacement     0.063133     0.001200     NO 
 Predicted change in Energy=-1.180763D-03
 GradGradGradGradGradGradGradGradGradGradGradGradGradGradGradGradGradGrad

                          Input orientation:                          
 ---------------------------------------------------------------------
 Center     Atomic      Atomic             Coordinates (Angstroms)
 Number     Number       Type             X           Y           Z
 ---------------------------------------------------------------------
      1          8           0        1.336280   -0.567038    0.000499
      2          1           0        2.293868   -0.528425    0.025879
      3          1           0        1.044813    0.345823    0.029081
      4          8           0       -1.735191   -3.736466    2.232645
      5          1           0       -1.146911   -3.080104    1.854392
      6          1           0       -2.008682   -3.359168    3.070106
 ---------------------------------------------------------------------
                    Distance matrix (angstroms):
                    1          2          3          4          5
     1  O    0.000000
     2  H    0.958702   0.000000
     3  H    0.958690   1.524617   0.000000
     4  O    4.945875   5.603094   5.408253   0.000000
     5  H    3.989819   4.657627   4.457846   0.959145   0.000000
     6  H    5.329845   5.982672   5.683188   0.958380   1.516076
                    6
     6  H    0.000000
 Stoichiometry    H4O2
 Framework group  C1[X(H4O2)]
 Deg. of freedom    12
 Full point group                 C1      NOp   1
 Largest Abelian subgroup         C1      NOp   1
 Largest concise Abelian subgroup C1      NOp   1
                         Standard orientation:                         
 ---------------------------------------------------------------------
 Center     Atomic      Atomic             Coordinates (Angstroms)
 Number     Number       Type             X           Y           Z
 ---------------------------------------------------------------------
      1          8           0        2.391004   -0.033561   -0.048513
      2          1           0        3.002408   -0.530100    0.498062
      3          1           0        2.773966    0.841854   -0.126449
      4          8           0       -2.554633   -0.080574   -0.060397
      5          1           0       -1.598636   -0.018422   -0.013863
      6          1           0       -2.868704    0.619753    0.513531
 ---------------------------------------------------------------------
 Rotational constants (GHZ):         242.1720202           2.2551498           2.2463820
 CPIOFr:  IOpCl= 0 IRwI=-2 IRwCP=20731 ICalc=  0 LCPTot=       52207 Len1MO=      139218 IndFrg=      191425
 CPIOFr:  IOpCl= 0 IRwI= 4 IRwCP=20731 ICalc=  0 LCPTot=       52207 Len1MO=      139218 IndFrg=      191425
 Counterpoise: doing full-system calculation.
 Basis read from rwf:  (5D, 7F)
 There are   210 symmetry adapted cartesian basis functions of A   symmetry.
 There are   184 symmetry adapted basis functions of A   symmetry.
   184 basis functions,   252 primitive gaussians,   210 cartesian basis functions
    10 alpha electrons       10 beta electrons
       nuclear repulsion energy        29.0138964858 Hartrees.
 NAtoms=    6 NActive=    6 NUniq=    6 SFac= 1.00D+00 NAtFMM=   60 NAOKFM=F Big=F
 Integral buffers will be    131072 words long.
 Raffenetti 1 integral format.
 Two-electron integral symmetry is turned on.
 One-electron integrals computed using PRISM.
 NBasis=   184 RedAO= T EigKep=  3.47D-04  NBF=   184
 NBsUse=   184 1.00D-06 EigRej= -1.00D+00 NBFU=   184
 Initial guess from the checkpoint file:  "h2o-dimer.chk"
 B after Tr=     0.000000    0.000000   -0.000000
         Rot=    0.999279    0.037967   -0.000429    0.000454 Ang=   4.35 deg.
 ExpMin= 2.53D-02 ExpMax= 1.53D+04 ExpMxC= 5.22D+02 IAcc=3 IRadAn=         5 AccDes= 0.00D+00
 Harris functional with IExCor=  205 and IRadAn=       5 diagonalized for initial guess.
 HarFok:  IExCor=  205 AccDes= 0.00D+00 IRadAn=         5 IDoV= 1 UseB2=F ITyADJ=14
 ICtDFT=  3500011 ScaDFX=  1.000000  1.000000  1.000000  1.000000
 FoFCou: FMM=F IPFlag=           0 FMFlag=      100000 FMFlg1=           0
         NFxFlg=           0 DoJE=T BraDBF=F KetDBF=T FulRan=T
         wScrn=  0.000000 ICntrl=       500 IOpCl=  0 I1Cent=   200000004 NGrid=           0
         NMat0=    1 NMatS0=      1 NMatT0=    0 NMatD0=    1 NMtDS0=    0 NMtDT0=    0
 Petite list used in FoFCou.
 Keep R1 ints in memory in canonical form, NReq=149546646.
 Requested convergence on RMS density matrix=1.00D-08 within 128 cycles.
 Requested convergence on MAX density matrix=1.00D-06.
 Requested convergence on             energy=1.00D-06.
 No special actions if energy rises.
 SCF Done:  E(RHF) =  -152.122206567     A.U. after    9 cycles
            NFock=  9  Conv=0.54D-08     -V/T= 2.0014
 ExpMin= 2.53D-02 ExpMax= 1.53D+04 ExpMxC= 5.22D+02 IAcc=3 IRadAn=         5 AccDes= 0.00D+00
 HarFok:  IExCor=  205 AccDes= 0.00D+00 IRadAn=         5 IDoV=-2 UseB2=F ITyADJ=14
 ICtDFT= 12500011 ScaDFX=  1.000000  1.000000  1.000000  1.000000
 Range of M.O.s used for correlation:     3   184
 NBasis=   184 NAE=    10 NBE=    10 NFC=     2 NFV=     0
 NROrb=    182 NOA=     8 NOB=     8 NVA=   174 NVB=   174

 **** Warning!!: The largest alpha MO coefficient is  0.14794180D+02

 Disk-based method using ON**2 memory for  8 occupieds at a time.
 Estimated scratch disk usage=   124931272 words.
 Actual    scratch disk usage=   114840776 words.
 JobTyp=1 Pass  1:  I=   3 to  10 NPSUse=  8 ParTrn=T ParDer=T DoDerP=T.
 (rs|ai) integrals will be sorted in core.
 Spin components of T(2) and E(2):
     alpha-alpha T2 =       0.1626519976D-01 E2=     -0.6517287017D-01
     alpha-beta  T2 =       0.9439676191D-01 E2=     -0.4065621197D+00
     beta-beta   T2 =       0.1626519976D-01 E2=     -0.6517287017D-01
 ANorm=    0.1061568256D+01
 E2 =    -0.5369078600D+00 EUMP2 =    -0.15265911442707D+03
          IDoAtm=111111
          Differentiating once with respect to electric field.
                with respect to dipole field.
          Differentiating once with respect to nuclear coordinates.
 Keep R1 ints in memory in canonical form, NReq=149547904.
          There are     1 degrees of freedom in the 1st order CPHF.  IDoFFX=0 NUNeed=     1.
 LinEq1:  Iter=  0 NonCon=     1 RMS=3.27D-03 Max=3.64D-02 NDo=     1
 AX will form     1 AO Fock derivatives at one time.
 LinEq1:  Iter=  1 NonCon=     1 RMS=4.38D-04 Max=4.08D-03 NDo=     1
 LinEq1:  Iter=  2 NonCon=     1 RMS=1.60D-04 Max=1.83D-03 NDo=     1
 LinEq1:  Iter=  3 NonCon=     1 RMS=4.30D-05 Max=3.23D-04 NDo=     1
 LinEq1:  Iter=  4 NonCon=     1 RMS=6.53D-06 Max=5.49D-05 NDo=     1
 LinEq1:  Iter=  5 NonCon=     1 RMS=1.14D-06 Max=1.02D-05 NDo=     1
 LinEq1:  Iter=  6 NonCon=     1 RMS=1.75D-07 Max=1.41D-06 NDo=     1
 LinEq1:  Iter=  7 NonCon=     1 RMS=2.98D-08 Max=2.57D-07 NDo=     1
 LinEq1:  Iter=  8 NonCon=     1 RMS=1.27D-08 Max=1.37D-07 NDo=     1
 LinEq1:  Iter=  9 NonCon=     1 RMS=2.48D-09 Max=2.18D-08 NDo=     1
 LinEq1:  Iter= 10 NonCon=     1 RMS=4.66D-10 Max=4.64D-09 NDo=     1
 LinEq1:  Iter= 11 NonCon=     0 RMS=6.81D-11 Max=7.44D-10 NDo=     1
 Linear equations converged to 1.000D-10 1.000D-09 after    11 iterations.
 End of Minotr F.D. properties file   721 does not exist.
 End of Minotr F.D. properties file   722 does not exist.
 End of Minotr F.D. properties file   788 does not exist.
 Calling FoFJK, ICntrl=  10002127 FMM=F ISym2X=0 I1Cent= 0 IOpClX= 0 NMat=1 NMatS=1 NMatT=0.
 ***** Axes restored to original set *****
 Cartesian Forces:  Max     0.004451767 RMS     0.002073694
 CPIOFr:  IOpCl= 0 IRwI=-1 IRwCP=  731 ICalc= -1 LCPTot=       52207 Len1MO=      139218 IndFrg=       52207
 CPIOFr:  IOpCl= 0 IRwI=-1 IRwCP=  731 ICalc=  0 LCPTot=       52207 Len1MO=      139218 IndFrg=      191425
 CPIOFr:  IOpCl= 0 IRwI=-2 IRwCP=20731 ICalc=  1 LCPTot=       52207 Len1MO=      139218 IndFrg=      330643
 CPIOFr:  IOpCl= 0 IRwI= 4 IRwCP=20731 ICalc=  1 LCPTot=       52207 Len1MO=      139218 IndFrg=      330643
 Counterpoise: doing calculation for fragment   1 using the basis set of the full-system, NewBq=T
 Basis read from rwf:  (5D, 7F)
 There are   210 symmetry adapted cartesian basis functions of A   symmetry.
 There are   184 symmetry adapted basis functions of A   symmetry.
   184 basis functions,   252 primitive gaussians,   210 cartesian basis functions
     5 alpha electrons        5 beta electrons
       nuclear repulsion energy         9.1787069744 Hartrees.
 NAtoms=    6 NActive=    6 NUniq=    6 SFac= 1.00D+00 NAtFMM=   60 NAOKFM=F Big=F
 Integral buffers will be    131072 words long.
 Raffenetti 1 integral format.
 Two-electron integral symmetry is turned on.
 One-electron integrals computed using PRISM.
 NBasis=   184 RedAO= T EigKep=  3.47D-04  NBF=   184
 NBsUse=   184 1.00D-06 EigRej= -1.00D+00 NBFU=   184
 Initial guess from the checkpoint file:  "h2o-dimer.chk"
 B after Tr=     0.000000    0.000000   -0.000000
         Rot=    0.999279    0.037967   -0.000429    0.000454 Ang=   4.35 deg.
 ExpMin= 2.53D-02 ExpMax= 1.53D+04 ExpMxC= 5.22D+02 IAcc=3 IRadAn=         5 AccDes= 0.00D+00
 Harris functional with IExCor=  205 and IRadAn=       5 diagonalized for initial guess.
 HarFok:  IExCor=  205 AccDes= 0.00D+00 IRadAn=         5 IDoV= 1 UseB2=F ITyADJ=14
 ICtDFT=  3500011 ScaDFX=  1.000000  1.000000  1.000000  1.000000
 FoFCou: FMM=F IPFlag=           0 FMFlag=      100000 FMFlg1=           0
         NFxFlg=           0 DoJE=T BraDBF=F KetDBF=T FulRan=T
         wScrn=  0.000000 ICntrl=       500 IOpCl=  0 I1Cent=   200000004 NGrid=           0
         NMat0=    1 NMatS0=      1 NMatT0=    0 NMatD0=    1 NMtDS0=    0 NMtDT0=    0
 Petite list used in FoFCou.
 Keep R1 ints in memory in canonical form, NReq=149546646.
 Requested convergence on RMS density matrix=1.00D-08 within 128 cycles.
 Requested convergence on MAX density matrix=1.00D-06.
 Requested convergence on             energy=1.00D-06.
 No special actions if energy rises.
 SCF Done:  E(RHF) =  -76.0605497669     A.U. after    9 cycles
            NFock=  9  Conv=0.31D-08     -V/T= 2.0014
 ExpMin= 2.53D-02 ExpMax= 1.53D+04 ExpMxC= 5.22D+02 IAcc=3 IRadAn=         5 AccDes= 0.00D+00
 HarFok:  IExCor=  205 AccDes= 0.00D+00 IRadAn=         5 IDoV=-2 UseB2=F ITyADJ=14
 ICtDFT= 12500011 ScaDFX=  1.000000  1.000000  1.000000  1.000000
 Range of M.O.s used for correlation:     2   184
 NBasis=   184 NAE=     5 NBE=     5 NFC=     1 NFV=     0
 NROrb=    183 NOA=     4 NOB=     4 NVA=   179 NVB=   179

 **** Warning!!: The largest alpha MO coefficient is  0.14338731D+02

 Fully direct method using O(ONN) memory.
 JobTyp=1 Pass  1:  I=   2 to   3 NPSUse=  8 ParTrn=T ParDer=T DoDerP=T.
 JobTyp=1 Pass  2:  I=   4 to   5 NPSUse=  8 ParTrn=T ParDer=T DoDerP=T.
 Spin components of T(2) and E(2):
     alpha-alpha T2 =       0.8129982269D-02 E2=     -0.3257415029D-01
     alpha-beta  T2 =       0.4720512053D-01 E2=     -0.2032695423D+00
     beta-beta   T2 =       0.8129982269D-02 E2=     -0.3257415029D-01
 ANorm=    0.1031244435D+01
 E2 =    -0.2684178429D+00 EUMP2 =    -0.76328967609846D+02
          IDoAtm=111111
          Differentiating once with respect to electric field.
                with respect to dipole field.
          Differentiating once with respect to nuclear coordinates.
 Keep R1 ints in memory in canonical form, NReq=149547905.
          There are     1 degrees of freedom in the 1st order CPHF.  IDoFFX=0 NUNeed=     1.
 LinEq1:  Iter=  0 NonCon=     1 RMS=3.22D-03 Max=3.40D-02 NDo=     1
 AX will form     1 AO Fock derivatives at one time.
 LinEq1:  Iter=  1 NonCon=     1 RMS=4.34D-04 Max=4.12D-03 NDo=     1
 LinEq1:  Iter=  2 NonCon=     1 RMS=1.58D-04 Max=1.69D-03 NDo=     1
 LinEq1:  Iter=  3 NonCon=     1 RMS=4.25D-05 Max=2.95D-04 NDo=     1
 LinEq1:  Iter=  4 NonCon=     1 RMS=6.52D-06 Max=5.52D-05 NDo=     1
 LinEq1:  Iter=  5 NonCon=     1 RMS=1.13D-06 Max=8.60D-06 NDo=     1
 LinEq1:  Iter=  6 NonCon=     1 RMS=1.69D-07 Max=1.60D-06 NDo=     1
 LinEq1:  Iter=  7 NonCon=     1 RMS=1.90D-08 Max=1.51D-07 NDo=     1
[...]
 There are    92 symmetry adapted basis functions of A   symmetry.
    92 basis functions,   126 primitive gaussians,   105 cartesian basis functions
     5 alpha electrons        5 beta electrons
       nuclear repulsion energy         9.1482094159 Hartrees.
 NAtoms=    6 NActive=    3 NUniq=    3 SFac= 1.00D+00 NAtFMM=   60 NAOKFM=F Big=F
 Integral buffers will be    131072 words long.
 Raffenetti 1 integral format.
 Two-electron integral symmetry is turned on.
 One-electron integrals computed using PRISM.
 NBasis=    92 RedAO= T EigKep=  3.89D-04  NBF=    92
 NBsUse=    92 1.00D-06 EigRej= -1.00D+00 NBFU=    92
 Initial guess from the checkpoint file:  "h2o-dimer.chk"
 B after Tr=     0.000407   -0.007062   -0.010255
         Rot=    0.999677   -0.025314    0.001818   -0.001267 Ang=  -2.91 deg.
 Keep R1 ints in memory in canonical form, NReq=13070685.
 Requested convergence on RMS density matrix=1.00D-08 within 128 cycles.
 Requested convergence on MAX density matrix=1.00D-06.
 Requested convergence on             energy=1.00D-06.
 No special actions if energy rises.
 SCF Done:  E(RHF) =  -76.0602511398     A.U. after    4 cycles
            NFock=  4  Conv=0.99D-08     -V/T= 2.0016
 ExpMin= 2.53D-02 ExpMax= 1.53D+04 ExpMxC= 5.22D+02 IAcc=3 IRadAn=         5 AccDes= 0.00D+00
 HarFok:  IExCor=  205 AccDes= 0.00D+00 IRadAn=         5 IDoV=-2 UseB2=F ITyADJ=14
 ICtDFT= 12500011 ScaDFX=  1.000000  1.000000  1.000000  1.000000
 Range of M.O.s used for correlation:     2    92
 NBasis=    92 NAE=     5 NBE=     5 NFC=     1 NFV=     0
 NROrb=     91 NOA=     4 NOB=     4 NVA=    87 NVB=    87

 **** Warning!!: The largest alpha MO coefficient is  0.15869236D+02

 Fully direct method using O(ONN) memory.
 JobTyp=1 Pass  1:  I=   2 to   5 NPSUse=  8 ParTrn=T ParDer=T DoDerP=T.
 Spin components of T(2) and E(2):
     alpha-alpha T2 =       0.8162366607D-02 E2=     -0.3261229902D-01
     alpha-beta  T2 =       0.4741163583D-01 E2=     -0.2035106033D+00
     beta-beta   T2 =       0.8162366607D-02 E2=     -0.3261229902D-01
 ANorm=    0.1031375959D+01
 E2 =    -0.2687352014D+00 EUMP2 =    -0.76328986341152D+02
          IDoAtm=111000
          Differentiating once with respect to electric field.
                with respect to dipole field.
          Differentiating once with respect to nuclear coordinates.
 Keep R1 ints in memory in canonical form, NReq=13071744.
          There are     1 degrees of freedom in the 1st order CPHF.  IDoFFX=0 NUNeed=     1.
 LinEq1:  Iter=  0 NonCon=     1 RMS=4.65D-03 Max=4.93D-02 NDo=     1
 AX will form     1 AO Fock derivatives at one time.
 LinEq1:  Iter=  1 NonCon=     1 RMS=6.31D-04 Max=4.82D-03 NDo=     1
 LinEq1:  Iter=  2 NonCon=     1 RMS=2.30D-04 Max=1.98D-03 NDo=     1
 LinEq1:  Iter=  3 NonCon=     1 RMS=6.19D-05 Max=4.65D-04 NDo=     1
 LinEq1:  Iter=  4 NonCon=     1 RMS=9.49D-06 Max=6.34D-05 NDo=     1
 LinEq1:  Iter=  5 NonCon=     1 RMS=1.62D-06 Max=1.11D-05 NDo=     1
 LinEq1:  Iter=  6 NonCon=     1 RMS=2.43D-07 Max=1.76D-06 NDo=     1
 LinEq1:  Iter=  7 NonCon=     1 RMS=2.78D-08 Max=2.39D-07 NDo=     1
 LinEq1:  Iter=  8 NonCon=     1 RMS=3.33D-09 Max=3.48D-08 NDo=     1
 LinEq1:  Iter=  9 NonCon=     1 RMS=3.25D-10 Max=2.15D-09 NDo=     1
 LinEq1:  Iter= 10 NonCon=     0 RMS=2.45D-11 Max=2.14D-10 NDo=     1
 Linear equations converged to 1.000D-10 1.000D-09 after    10 iterations.
 End of Minotr F.D. properties file   721 does not exist.
 End of Minotr F.D. properties file   722 does not exist.
 End of Minotr F.D. properties file   788 does not exist.
 Calling FoFJK, ICntrl=  10002127 FMM=F ISym2X=0 I1Cent= 0 IOpClX= 0 NMat=1 NMatS=1 NMatT=0.
 ***** Axes restored to original set *****
 Cartesian Forces:  Max     0.000929344 RMS     0.000394426
 CPIOFr:  IOpCl= 0 IRwI=-1 IRwCP=  731 ICalc=  3 LCPTot=       52207 Len1MO=      139218 IndFrg=      609079
 CPIOFr:  IOpCl= 0 IRwI=-2 IRwCP=20731 ICalc=  4 LCPTot=       52207 Len1MO=      139218 IndFrg=      748297
 CPIOFr:  IOpCl= 0 IRwI= 4 IRwCP=20731 ICalc=  4 LCPTot=       52207 Len1MO=      139218 IndFrg=      748297
 Counterpoise: doing calculation for fragment   2 using the basis set of the fragment.
 Basis read from rwf:  (5D, 7F)
 There are   105 symmetry adapted cartesian basis functions of A   symmetry.
 There are    92 symmetry adapted basis functions of A   symmetry.
    92 basis functions,   126 primitive gaussians,   105 cartesian basis functions
     5 alpha electrons        5 beta electrons
       nuclear repulsion energy         9.1271649185 Hartrees.
 NAtoms=    6 NActive=    3 NUniq=    3 SFac= 1.00D+00 NAtFMM=   60 NAOKFM=F Big=F
 Integral buffers will be    131072 words long.
 Raffenetti 1 integral format.
 Two-electron integral symmetry is turned on.
 One-electron integrals computed using PRISM.
 NBasis=    92 RedAO= T EigKep=  3.90D-04  NBF=    92
 NBsUse=    92 1.00D-06 EigRej= -1.00D+00 NBFU=    92
 Initial guess from the checkpoint file:  "h2o-dimer.chk"
 B after Tr=    -0.000275    0.012860   -0.000977
         Rot=    0.999578   -0.028940   -0.000238   -0.002301 Ang=  -3.33 deg.
 Keep R1 ints in memory in canonical form, NReq=13070685.
 Requested convergence on RMS density matrix=1.00D-08 within 128 cycles.
 Requested convergence on MAX density matrix=1.00D-06.
 Requested convergence on             energy=1.00D-06.
 No special actions if energy rises.
 SCF Done:  E(RHF) =  -76.0600166998     A.U. after    6 cycles
            NFock=  6  Conv=0.26D-08     -V/T= 2.0017
 ExpMin= 2.53D-02 ExpMax= 1.53D+04 ExpMxC= 5.22D+02 IAcc=3 IRadAn=         5 AccDes= 0.00D+00
 HarFok:  IExCor=  205 AccDes= 0.00D+00 IRadAn=         5 IDoV=-2 UseB2=F ITyADJ=14
 ICtDFT= 12500011 ScaDFX=  1.000000  1.000000  1.000000  1.000000
 Range of M.O.s used for correlation:     2    92
 NBasis=    92 NAE=     5 NBE=     5 NFC=     1 NFV=     0
 NROrb=     91 NOA=     4 NOB=     4 NVA=    87 NVB=    87

 **** Warning!!: The largest alpha MO coefficient is  0.15712353D+02

 Fully direct method using O(ONN) memory.
 JobTyp=1 Pass  1:  I=   2 to   5 NPSUse=  8 ParTrn=T ParDer=T DoDerP=T.
 Spin components of T(2) and E(2):
     alpha-alpha T2 =       0.8181853489D-02 E2=     -0.3263394257D-01
     alpha-beta  T2 =       0.4753952360D-01 E2=     -0.2036560256D+00
     beta-beta   T2 =       0.8181853489D-02 E2=     -0.3263394257D-01
 ANorm=    0.1031456849D+01
 E2 =    -0.2689239108D+00 EUMP2 =    -0.76328940610547D+02
          IDoAtm=000111
          Differentiating once with respect to electric field.
                with respect to dipole field.
          Differentiating once with respect to nuclear coordinates.
 Keep R1 ints in memory in canonical form, NReq=13071744.
          There are     1 degrees of freedom in the 1st order CPHF.  IDoFFX=0 NUNeed=     1.
 LinEq1:  Iter=  0 NonCon=     1 RMS=4.67D-03 Max=4.95D-02 NDo=     1
 AX will form     1 AO Fock derivatives at one time.
 LinEq1:  Iter=  1 NonCon=     1 RMS=6.35D-04 Max=4.85D-03 NDo=     1
 LinEq1:  Iter=  2 NonCon=     1 RMS=2.32D-04 Max=2.00D-03 NDo=     1
 LinEq1:  Iter=  3 NonCon=     1 RMS=6.25D-05 Max=4.69D-04 NDo=     1
 LinEq1:  Iter=  4 NonCon=     1 RMS=9.58D-06 Max=6.43D-05 NDo=     1
 LinEq1:  Iter=  5 NonCon=     1 RMS=1.63D-06 Max=1.12D-05 NDo=     1
 LinEq1:  Iter=  6 NonCon=     1 RMS=2.46D-07 Max=1.78D-06 NDo=     1
 LinEq1:  Iter=  7 NonCon=     1 RMS=2.81D-08 Max=2.41D-07 NDo=     1
 LinEq1:  Iter=  8 NonCon=     1 RMS=3.40D-09 Max=3.54D-08 NDo=     1
 LinEq1:  Iter=  9 NonCon=     1 RMS=3.77D-10 Max=2.36D-09 NDo=     1
 LinEq1:  Iter= 10 NonCon=     0 RMS=5.73D-11 Max=3.30D-10 NDo=     1
 Linear equations converged to 1.000D-10 1.000D-09 after    10 iterations.
 End of Minotr F.D. properties file   721 does not exist.
 End of Minotr F.D. properties file   722 does not exist.
 End of Minotr F.D. properties file   788 does not exist.
 Calling FoFJK, ICntrl=  10002127 FMM=F ISym2X=0 I1Cent= 0 IOpClX= 0 NMat=1 NMatS=1 NMatT=0.
 ***** Axes restored to original set *****
 Cartesian Forces:  Max     0.005108976 RMS     0.002371996
 CPIOFr:  IOpCl= 0 IRwI=-1 IRwCP=  731 ICalc=  4 LCPTot=       52207 Len1MO=      139218 IndFrg=      748297
 CPIOFr:  IOpCl= 0 IRwI=-2 IRwCP=  731 ICalc=  0 LCPTot=       52207 Len1MO=      139218 IndFrg=      191425
 Counterpoise corrected energy =    -152.665502689781
                   BSSE energy =       0.000725961341
              sum of fragments =    -152.657926951698
           complexation energy =      -5.21 kcal/mole (raw)
           complexation energy =      -4.75 kcal/mole (corrected)
 Rotating derivatives to standard orientation.
 ***** Axes restored to original set *****
 -------------------------------------------------------------------
 Center     Atomic             Integrated Forces (Hartrees/Bohr)
 Number     Number              X              Y              Z
 -------------------------------------------------------------------
      1        8           0.000003006   -0.000006700    0.000034595
      2        1           0.000014481    0.000000499   -0.000016517
      3        1          -0.000006007    0.000006606   -0.000021614
      4        8           0.000032482    0.000019200   -0.000025558
      5        1          -0.000034543   -0.000016310    0.000005544
      6        1          -0.000009419   -0.000003296    0.000023549
 -------------------------------------------------------------------
 Integrated Cartesian Forces:  Max     0.000034595 RMS     0.000019005

 GradGradGradGradGradGradGradGradGradGradGradGradGradGradGradGradGradGrad
 Berny optimization.
 Using GEDIIS/GDIIS optimizer.
 FormGI is forming the generalized inverse of G from B-inverse, IUseBI=4.
 Internal  Forces:  Max     0.000026928 RMS     0.000014278
 Search for a local minimum.
 Step number  41 out of a maximum of   50
 All quantities printed in internal units (Hartrees-Bohrs-Radians)
 Mixed Optimization -- En-DIIS/RFO-DIIS
 Swapping is turned off.
 Update second derivatives using D2CorX and points   28   27   30   29   31
                                                     32   33   34   35   36
                                                     37   38   39   40   41
 DE= -7.66D-07 DEPred=-3.10D-07 R= 2.47D+00
 Trust test= 2.47D+00 RLast= 1.98D-02 DXMaxT set to 2.41D-01
 The second derivative matrix:
                          R1        R2        R3        R4        R5
           R1           0.57699
           R2           0.02528   0.58407
           R3           0.00470   0.00594   0.01269
           R4          -0.00778  -0.01233   0.00731   0.58899
           R5           0.04185   0.04660   0.00711  -0.04100   0.58368
           A1           0.01210   0.01119  -0.00413  -0.00346  -0.00881
           A2           0.00227   0.00123   0.00328   0.00629   0.00624
           A3          -0.00375  -0.00121   0.00126   0.00149   0.00640
           A4           0.00776   0.00967   0.00618   0.04063   0.04299
           A5           0.00997   0.01077   0.00193  -0.00112   0.00187
           A6           0.00151   0.00133   0.00042   0.00118   0.00075
           D1          -0.00262  -0.00302  -0.00206  -0.00370   0.00087
           D2          -0.00631  -0.00579   0.00042  -0.00111   0.00978
           D3           0.00851   0.00835   0.00041   0.00134  -0.00770
                          A1        A2        A3        A4        A5
           A1           0.06469
           A2          -0.02603   0.01443
           A3          -0.02308   0.00661   0.01383
           A4          -0.00234   0.00195  -0.00081   0.16953
           A5           0.00478   0.00062   0.00066  -0.00279   0.01258
           A6           0.00085   0.00173  -0.00276   0.00064   0.00023
           D1           0.00440  -0.00251  -0.00197   0.00044   0.00029
           D2          -0.02358   0.00874   0.00745   0.00099  -0.00262
           D3           0.02323  -0.00774  -0.00780   0.00056   0.00279
                          A6        D1        D2        D3
           A6           0.00285
           D1           0.00052   0.00367
           D2          -0.00001  -0.00044   0.01008
           D3           0.00044   0.00010  -0.00977   0.01061
 ITU=  0  1  0  1  1  1  1  1  1  1  1 -1  0  0  0
     Eigenvalues ---    0.00049   0.00100   0.00161   0.00861   0.01078
     Eigenvalues ---    0.01391   0.09921   0.16056   0.52853   0.55496
     Eigenvalues ---    0.58529   0.67637
 En-DIIS/RFO-DIIS/Sim-DIIS IScMMF=       -3 using points:    41   40   39   38   37   36   35   34   33   32
 RFO step:  Lambda=-4.49547652D-08.
 DIIS inversion failure, remove point  10.
 DIIS inversion failure, remove point   9.
 DIIS inversion failure, remove point   8.
 DIIS inversion failure, remove point   7.
 DIIS inversion failure, remove point   6.
 DIIS inversion failure, remove point   5.
 DIIS inversion failure, remove point   4.
 RFO-DIIS uses    3 points instead of   10
 DidBck=F Rises=F RFO-DIIS coefs:    1.05848   -0.11988    0.06140    0.00000    0.00000
                  RFO-DIIS coefs:    0.00000    0.00000    0.00000    0.00000    0.00000
 Iteration  1 RMS(Cart)=  0.00088583 RMS(Int)=  0.00000148
 Iteration  2 RMS(Cart)=  0.00000131 RMS(Int)=  0.00000086
 Iteration  3 RMS(Cart)=  0.00000000 RMS(Int)=  0.00000086
 Variable       Old X    -DE/DX   Delta X   Delta X   Delta X     New X
                                 (Linear)    (Quad)   (Total)
    R1        1.81809   0.00002   0.00001   0.00001   0.00002   1.81811
    R2        1.81808   0.00002   0.00001   0.00002   0.00002   1.81810
    R3        3.72343   0.00001   0.00026   0.00020   0.00046   3.72389
    R4        1.82985  -0.00003  -0.00002  -0.00004  -0.00006   1.82979
    R5        1.81485   0.00002   0.00001   0.00001   0.00002   1.81487
    A1        1.82446  -0.00001  -0.00000  -0.00024  -0.00024   1.82422
    A2        1.95226   0.00001  -0.00011  -0.00034  -0.00045   1.95181
    A3        1.95328  -0.00001   0.00028  -0.00162  -0.00134   1.95194
    A4        1.82271   0.00001  -0.00001   0.00010   0.00009   1.82279
    A5        3.28396   0.00001   0.00016   0.00113   0.00129   3.28525
    A6        3.13989   0.00001   0.00085   0.00101   0.00186   3.14175
    D1        2.11629   0.00000   0.00002  -0.00145  -0.00143   2.11486
    D2        2.13649   0.00001  -0.00003   0.00107   0.00104   2.13753
    D3       -2.13679  -0.00001   0.00004  -0.00064  -0.00060  -2.13739
         Item               Value     Threshold  Converged?
 Maximum Force            0.000027     0.000450     YES
 RMS     Force            0.000014     0.000300     YES
 Maximum Displacement     0.001612     0.001800     YES
 RMS     Displacement     0.000886     0.001200     YES
 Predicted change in Energy=-2.224041D-08
 Optimization completed.
    -- Stationary point found.
                           ----------------------------
                           !   Optimized Parameters   !
                           ! (Angstroms and Degrees)  !
 --------------------------                            --------------------------
 ! Name  Definition              Value          Derivative Info.                !
 --------------------------------------------------------------------------------
 ! R1    R(1,2)                  0.9621         -DE/DX =    0.0                 !
 ! R2    R(1,3)                  0.9621         -DE/DX =    0.0                 !
 ! R3    R(1,5)                  1.9704         -DE/DX =    0.0                 !
 ! R4    R(4,5)                  0.9683         -DE/DX =    0.0                 !
 ! R5    R(4,6)                  0.9604         -DE/DX =    0.0                 !
 ! A1    A(2,1,3)              104.534          -DE/DX =    0.0                 !
 ! A2    A(2,1,5)              111.8563         -DE/DX =    0.0                 !
 ! A3    A(3,1,5)              111.9149         -DE/DX =    0.0                 !
 ! A4    A(5,4,6)              104.4334         -DE/DX =    0.0                 !
 ! A5    L(1,5,4,6,-1)         188.1571         -DE/DX =    0.0                 !
 ! A6    L(1,5,4,6,-2)         179.9023         -DE/DX =    0.0                 !
 ! D1    D(2,1,3,5)            121.2544         -DE/DX =    0.0                 !
 ! D2    D(2,1,4,6)            122.4116         -DE/DX =    0.0                 !
 ! D3    D(3,1,4,6)           -122.429          -DE/DX =    0.0                 !
 --------------------------------------------------------------------------------
 GradGradGradGradGradGradGradGradGradGradGradGradGradGradGradGradGradGrad

                          Input orientation:                          
 ---------------------------------------------------------------------
 Center     Atomic      Atomic             Coordinates (Angstroms)
 Number     Number       Type             X           Y           Z
 ---------------------------------------------------------------------
      1          8           0        0.755487   -0.934505    0.821483
      2          1           0        1.552031   -1.328429    0.452753
      3          1           0        0.376119   -0.431405    0.094448
      4          8           0       -1.104702   -3.021515    1.705368
      5          1           0       -0.491806   -2.300464    1.500240
      6          1           0       -1.302954   -2.909060    2.638309
 ---------------------------------------------------------------------
                    Distance matrix (angstroms):
                    1          2          3          4          5
     1  O    0.000000
     2  H    0.962092   0.000000
     3  H    0.962086   1.521777   0.000000
     4  O    2.932093   3.390254   3.390659   0.000000
     5  H    1.970354   2.493863   2.494579   0.968315   0.000000
     6  H    3.381850   3.927594   3.928014   0.960380   1.524320
                    6
     6  H    0.000000
 Stoichiometry    H4O2
 Framework group  C1[X(H4O2)]
 Deg. of freedom    12
 Full point group                 C1      NOp   1
 Largest Abelian subgroup         C1      NOp   1
 Largest concise Abelian subgroup C1      NOp   1
                         Standard orientation:                         
 ---------------------------------------------------------------------
 Center     Atomic      Atomic             Coordinates (Angstroms)
 Number     Number       Type             X           Y           Z
 ---------------------------------------------------------------------
      1          8           0        1.396346    0.000042    0.108640
      2          1           0        1.769392   -0.761016   -0.346605
      3          1           0        1.769877    0.760761   -0.346761
      4          8           0       -1.526677    0.000044   -0.121807
      5          1           0       -0.573012   -0.000515    0.045992
      6          1           0       -1.923606    0.000080    0.752708
 ---------------------------------------------------------------------
 Rotational constants (GHZ):         218.2136552           6.3132522           6.3118374
 Unable to Open any file for archive entry.
 1\1\GINC-GRA581\FOpt\RMP2-FC\Aug-CC-pVTZ\H4O2\CROWLEY\25-Jan-2022\0\\#
 MP2/aug-cc-pvtz opt=(maxcycles=50) counterpoise=2\\Title Card Required
 \\0,1\O,0.7554872727,-0.9345051608,0.8214825296\H,1.5520314437,-1.3284
 293864,0.4527525728\H,0.3761194679,-0.431404766,0.0944484104\O,-1.1047
 021937,-3.0215150975,1.7053683678\H,-0.4918056984,-2.3004642199,1.5002
 397234\H,-1.3029541422,-2.9090595894,2.638309426\\Version=ES64L-G16Rev
 C.01\HF=-76.0600167\MP2=-76.3289406\RMSD=2.621e-09\RMSF=1.901e-05\Dipo
 le=0.6595621,0.7351956,-0.3234805\PG=C01 [X(H4O2)]\\@
 The archive entry for this job was punched.


 NOTHING PUZZLES ME MORE THAN TIME AND SPACE; AND YET NOTHING TROUBLES ME LESS
                                                          -- CHARLES LAMB (1810)
 Job cpu time:       0 days  7 hours 38 minutes 21.4 seconds.
 Elapsed time:       0 days  1 hours 18 minutes 24.4 seconds.
 File lengths (MBytes):  RWF=   1010 Int=      0 D2E=      0 Chk=     10 Scr=      1
 Normal termination of Gaussian 16 at Tue Jan 25 02:13:35 2022.
