 Entering Gaussian System, Link 0=g16
 Initial command:
 /opt/software/gaussian/g16.c01/l1.exe "/localscratch/crowley.57124098.0/Gau-20514.inp" -scrdir="/localscratch/crowley.57124098.0/"
 Entering Link 1 = /opt/software/gaussian/g16.c01/l1.exe PID=     20539.
  
 Copyright (c) 1988-2019, Gaussian, Inc.  All Rights Reserved.
  
 This is part of the Gaussian(R) 16 program.  It is based on
 the Gaussian(R) 09 system (copyright 2009, Gaussian, Inc.),
 the Gaussian(R) 03 system (copyright 2003, Gaussian, Inc.),
 the Gaussian(R) 98 system (copyright 1998, Gaussian, Inc.),
 the Gaussian(R) 94 system (copyright 1995, Gaussian, Inc.),
 the Gaussian 92(TM) system (copyright 1992, Gaussian, Inc.),
 the Gaussian 90(TM) system (copyright 1990, Gaussian, Inc.),
 the Gaussian 88(TM) system (copyright 1988, Gaussian, Inc.),
 the Gaussian 86(TM) system (copyright 1986, Carnegie Mellon
 University), and the Gaussian 82(TM) system (copyright 1983,
 Carnegie Mellon University). Gaussian is a federally registered
 trademark of Gaussian, Inc.
  
 This software contains proprietary and confidential information,
 including trade secrets, belonging to Gaussian, Inc.
  
 This software is provided under written license and may be
 used, copied, transmitted, or stored only in accord with that
 written license.
  
 The following legend is applicable only to US Government
 contracts under FAR:
  
                    RESTRICTED RIGHTS LEGEND
  
 Use, reproduction and disclosure by the US Government is
 subject to restrictions as set forth in subparagraphs (a)
 and (c) of the Commercial Computer Software - Restricted
 Rights clause in FAR 52.227-19.
  
 Gaussian, Inc.
 340 Quinnipiac St., Bldg. 40, Wallingford CT 06492
  
  
 ---------------------------------------------------------------
 Warning -- This program may not be used in any manner that
 competes with the business of Gaussian, Inc. or will provide
 assistance to any competitor of Gaussian, Inc.  The licensee
 of this program is prohibited from giving any competitor of
 Gaussian, Inc. access to this program.  By using this program,
 the user acknowledges that Gaussian, Inc. is engaged in the
 business of creating and licensing software in the field of
 computational chemistry and represents and warrants to the
 licensee that it is not a competitor of Gaussian, Inc. and that
 it will not use this program in any manner prohibited above.
 ---------------------------------------------------------------
  

 Cite this work as:
 Gaussian 16, Revision C.01,
 M. J. Frisch, G. W. Trucks, H. B. Schlegel, G. E. Scuseria, 
 M. A. Robb, J. R. Cheeseman, G. Scalmani, V. Barone, 
 G. A. Petersson, H. Nakatsuji, X. Li, M. Caricato, A. V. Marenich, 
 J. Bloino, B. G. Janesko, R. Gomperts, B. Mennucci, H. P. Hratchian, 
 J. V. Ortiz, A. F. Izmaylov, J. L. Sonnenberg, D. Williams-Young, 
 F. Ding, F. Lipparini, F. Egidi, J. Goings, B. Peng, A. Petrone, 
 T. Henderson, D. Ranasinghe, V. G. Zakrzewski, J. Gao, N. Rega, 
 G. Zheng, W. Liang, M. Hada, M. Ehara, K. Toyota, R. Fukuda, 
 J. Hasegawa, M. Ishida, T. Nakajima, Y. Honda, O. Kitao, H. Nakai, 
 T. Vreven, K. Throssell, J. A. Montgomery, Jr., J. E. Peralta, 
 F. Ogliaro, M. J. Bearpark, J. J. Heyd, E. N. Brothers, K. N. Kudin, 
 V. N. Staroverov, T. A. Keith, R. Kobayashi, J. Normand, 
 K. Raghavachari, A. P. Rendell, J. C. Burant, S. S. Iyengar, 
 J. Tomasi, M. Cossi, J. M. Millam, M. Klene, C. Adamo, R. Cammi, 
 J. W. Ochterski, R. L. Martin, K. Morokuma, O. Farkas, 
 J. B. Foresman, and D. J. Fox, Gaussian, Inc., Wallingford CT, 2019.
 
 ******************************************
 Gaussian 16:  ES64L-G16RevC.01  3-Jul-2019
                25-Jan-2022 
 ******************************************
 %chk=h2o.chk
 %nproc=8
 Will use up to    8 processors via shared memory.
 %mem=2000MB
 ---------------------------------------
 #MP2/aug-cc-pvtz opt density pop=chelpg
 ---------------------------------------
 1/18=20,19=15,38=1/1,3;
 2/9=110,12=2,17=6,18=5,40=1/2;
 3/5=16,6=1,7=10,11=9,25=1,30=1,71=1/1,2,3;
 4//1;
 5/5=2,38=5/2;
 8/6=4,10=1/1;
 9/15=2,16=-3/6;
 10/5=1/2;
 6/7=2,8=2,9=2,10=2,15=8,20=3,22=-1/1,2;
 7/12=2/1,2,3,16;
 1/18=20,19=15/3(2);
 2/9=110/2;
 99//99;
 2/9=110/2;
 3/5=16,6=1,7=10,11=9,25=1,30=1,71=1/1,2,3;
 4/5=5,16=3,69=1/1;
 5/5=2,38=5/2;
 8/6=4,10=1/1;
 9/15=2,16=-3/6;
 10/5=1/2;
 7/12=2/1,2,3,16;
 1/18=20,19=15/3(-8);
 2/9=110/2;
 6/7=2,8=2,9=2,10=2,15=8,20=3,22=-1/1,2;
 99/9=10/99;
 -------------------
 Title Card Required
 -------------------
 Symbolic Z-matrix:
 Charge =  0 Multiplicity = 1
 O                     1.36501  -0.53544   0. 
 H                     2.32501  -0.53544   0. 
 H                     1.04455   0.36949   0. 
 

 GradGradGradGradGradGradGradGradGradGradGradGradGradGradGradGradGradGrad
 Berny optimization.
 Initialization pass.
                           ----------------------------
                           !    Initial Parameters    !
                           ! (Angstroms and Degrees)  !
 --------------------------                            --------------------------
 ! Name  Definition              Value          Derivative Info.                !
 --------------------------------------------------------------------------------
 ! R1    R(1,2)                  0.96           estimate D2E/DX2                !
 ! R2    R(1,3)                  0.96           estimate D2E/DX2                !
 ! A1    A(2,1,3)              109.5            estimate D2E/DX2                !
 --------------------------------------------------------------------------------
 Trust Radius=3.00D-01 FncErr=1.00D-07 GrdErr=1.00D-07 EigMax=2.50D+02 EigMin=1.00D-04
 Number of steps in this run=     20 maximum allowed number of steps=    100.
 GradGradGradGradGradGradGradGradGradGradGradGradGradGradGradGradGradGrad

                          Input orientation:                          
 ---------------------------------------------------------------------
 Center     Atomic      Atomic             Coordinates (Angstroms)
 Number     Number       Type             X           Y           Z
 ---------------------------------------------------------------------
      1          8           0        1.365007   -0.535445    0.000000
      2          1           0        2.325007   -0.535445    0.000000
      3          1           0        1.044553    0.369491    0.000000
 ---------------------------------------------------------------------
                    Distance matrix (angstroms):
                    1          2          3
     1  O    0.000000
     2  H    0.960000   0.000000
     3  H    0.960000   1.567952   0.000000
 Stoichiometry    H2O
 Framework group  C2V[C2(O),SGV(H2)]
 Deg. of freedom     2
 Full point group                 C2V     NOp   4
 Largest Abelian subgroup         C2V     NOp   4
 Largest concise Abelian subgroup C2      NOp   2
                         Standard orientation:                         
 ---------------------------------------------------------------------
 Center     Atomic      Atomic             Coordinates (Angstroms)
 Number     Number       Type             X           Y           Z
 ---------------------------------------------------------------------
      1          8           0       -0.000000   -0.000000    0.110812
      2          1           0       -0.000000    0.783976   -0.443248
      3          1           0       -0.000000   -0.783976   -0.443248
 ---------------------------------------------------------------------
 Rotational constants (GHZ):         919.6759719         407.9403295         282.5913772
 Standard basis: Aug-CC-pVTZ (5D, 7F)
 There are    42 symmetry adapted cartesian basis functions of A1  symmetry.
 There are    12 symmetry adapted cartesian basis functions of A2  symmetry.
 There are    20 symmetry adapted cartesian basis functions of B1  symmetry.
 There are    31 symmetry adapted cartesian basis functions of B2  symmetry.
 There are    35 symmetry adapted basis functions of A1  symmetry.
 There are    12 symmetry adapted basis functions of A2  symmetry.
 There are    18 symmetry adapted basis functions of B1  symmetry.
 There are    27 symmetry adapted basis functions of B2  symmetry.
    92 basis functions,   126 primitive gaussians,   105 cartesian basis functions
     5 alpha electrons        5 beta electrons
       nuclear repulsion energy         9.1571160246 Hartrees.
 NAtoms=    3 NActive=    3 NUniq=    2 SFac= 2.25D+00 NAtFMM=   60 NAOKFM=F Big=F
 Integral buffers will be    131072 words long.
 Raffenetti 1 integral format.
 Two-electron integral symmetry is turned on.
 One-electron integrals computed using PRISM.
 NBasis=    92 RedAO= T EigKep=  3.77D-04  NBF=    35    12    18    27
 NBsUse=    92 1.00D-06 EigRej= -1.00D+00 NBFU=    35    12    18    27
 ExpMin= 2.53D-02 ExpMax= 1.53D+04 ExpMxC= 5.22D+02 IAcc=3 IRadAn=         5 AccDes= 0.00D+00
 Harris functional with IExCor=  205 and IRadAn=       5 diagonalized for initial guess.
 HarFok:  IExCor=  205 AccDes= 0.00D+00 IRadAn=         5 IDoV= 1 UseB2=F ITyADJ=14
 ICtDFT=  3500011 ScaDFX=  1.000000  1.000000  1.000000  1.000000
 FoFCou: FMM=F IPFlag=           0 FMFlag=      100000 FMFlg1=           0
         NFxFlg=           0 DoJE=T BraDBF=F KetDBF=T FulRan=T
         wScrn=  0.000000 ICntrl=       500 IOpCl=  0 I1Cent=   200000004 NGrid=           0
         NMat0=    1 NMatS0=      1 NMatT0=    0 NMatD0=    1 NMtDS0=    0 NMtDT0=    0
 Petite list used in FoFCou.
 Initial guess orbital symmetries:
       Occupied  (A1) (A1) (B2) (A1) (B1)
       Virtual   (A1) (B2) (A1) (B1) (A1) (B2) (B2) (A1) (A2) (A1)
                 (B1) (B2) (A1) (B2) (B2) (A1) (A1) (B1) (A2) (A1)
                 (A1) (B1) (B1) (B2) (A2) (B2) (A1) (B2) (A1) (B1)
                 (B2) (A1) (A2) (B2) (A2) (A1) (B1) (A1) (B2) (B2)
                 (A1) (B1) (A2) (A1) (A1) (B1) (B2) (A1) (B1) (B2)
                 (A1) (A2) (B2) (B2) (A1) (B1) (A2) (A1) (B2) (B1)
                 (B1) (A2) (B2) (A1) (A1) (B2) (B2) (A2) (A1) (B2)
                 (B1) (A1) (A1) (B2) (B1) (A1) (B1) (A1) (B1) (A2)
                 (A2) (B2) (A1) (B2) (A1) (B2) (A1)
 The electronic state of the initial guess is 1-A1.
 Keep R1 ints in memory in symmetry-blocked form, NReq=13082256.
 Requested convergence on RMS density matrix=1.00D-08 within 128 cycles.
 Requested convergence on MAX density matrix=1.00D-06.
 Requested convergence on             energy=1.00D-06.
 No special actions if energy rises.
 SCF Done:  E(RHF) =  -76.0600661839     A.U. after   10 cycles
            NFock= 10  Conv=0.38D-08     -V/T= 2.0016
 ExpMin= 2.53D-02 ExpMax= 1.53D+04 ExpMxC= 5.22D+02 IAcc=3 IRadAn=         5 AccDes= 0.00D+00
 HarFok:  IExCor=  205 AccDes= 0.00D+00 IRadAn=         5 IDoV=-2 UseB2=F ITyADJ=14
 ICtDFT= 12500011 ScaDFX=  1.000000  1.000000  1.000000  1.000000
 Range of M.O.s used for correlation:     2    92
 NBasis=    92 NAE=     5 NBE=     5 NFC=     1 NFV=     0
 NROrb=     91 NOA=     4 NOB=     4 NVA=    87 NVB=    87

 **** Warning!!: The largest alpha MO coefficient is  0.16034587D+02

 Fully direct method using O(ONN) memory.
 JobTyp=1 Pass  1:  I=   2 to   5 NPSUse=  8 ParTrn=T ParDer=T DoDerP=T.
 Spin components of T(2) and E(2):
     alpha-alpha T2 =       0.8123009699D-02 E2=     -0.3255738424D-01
     alpha-beta  T2 =       0.4717558867D-01 E2=     -0.2031420633D+00
     beta-beta   T2 =       0.8123009699D-02 E2=     -0.3255738424D-01
 ANorm=    0.1031223355D+01
 E2 =    -0.2682568318D+00 EUMP2 =    -0.76328323015709D+02
          IDoAtm=111
          Differentiating once with respect to electric field.
                with respect to dipole field.
          Differentiating once with respect to nuclear coordinates.
 Keep R1 ints in memory in symmetry-blocked form, NReq=13083072.
          There are     1 degrees of freedom in the 1st order CPHF.  IDoFFX=0 NUNeed=     1.
 LinEq1:  Iter=  0 NonCon=     1 RMS=4.62D-03 Max=4.90D-02 NDo=     1
 AX will form     1 AO Fock derivatives at one time.
 LinEq1:  Iter=  1 NonCon=     1 RMS=6.15D-04 Max=4.64D-03 NDo=     1
 LinEq1:  Iter=  2 NonCon=     1 RMS=2.24D-04 Max=1.91D-03 NDo=     1
 LinEq1:  Iter=  3 NonCon=     1 RMS=5.99D-05 Max=4.56D-04 NDo=     1
 LinEq1:  Iter=  4 NonCon=     1 RMS=9.10D-06 Max=5.76D-05 NDo=     1
 LinEq1:  Iter=  5 NonCon=     1 RMS=1.70D-06 Max=1.16D-05 NDo=     1
 LinEq1:  Iter=  6 NonCon=     1 RMS=2.45D-07 Max=1.73D-06 NDo=     1
 LinEq1:  Iter=  7 NonCon=     1 RMS=2.71D-08 Max=2.37D-07 NDo=     1
 LinEq1:  Iter=  8 NonCon=     1 RMS=3.32D-09 Max=3.47D-08 NDo=     1
 LinEq1:  Iter=  9 NonCon=     1 RMS=3.25D-10 Max=2.15D-09 NDo=     1
 LinEq1:  Iter= 10 NonCon=     0 RMS=2.41D-11 Max=2.02D-10 NDo=     1
 Linear equations converged to 1.000D-10 1.000D-09 after    10 iterations.
 End of Minotr F.D. properties file   721 does not exist.
 End of Minotr F.D. properties file   722 does not exist.
 End of Minotr F.D. properties file   788 does not exist.

 **********************************************************************

            Population analysis using the MP2 Density.

 **********************************************************************

 Orbital symmetries:
       Occupied  (A1) (A1) (B2) (A1) (B1)
       Virtual   (A1) (B2) (A1) (B1) (A1) (B2) (B2) (A1) (A2) (B1)
                 (A1) (B2) (A1) (B2) (B2) (A1) (A1) (A2) (B1) (A1)
                 (B1) (A1) (B2) (A2) (B1) (B2) (A1) (A1) (B2) (B1)
                 (B2) (A2) (A1) (B2) (A2) (A1) (B1) (B2) (A1) (B2)
                 (A1) (B1) (A2) (A1) (B1) (A1) (B2) (A1) (B2) (B1)
                 (A1) (B2) (A2) (B2) (A1) (A2) (B1) (A1) (B2) (B1)
                 (A2) (B1) (A1) (B2) (A1) (B2) (B2) (A2) (B2) (A1)
                 (B1) (A1) (A1) (B2) (B1) (A1) (B1) (B1) (A1) (A2)
                 (A2) (B2) (A1) (B2) (A1) (B2) (A1)
 The electronic state is 1-A1.
 Alpha  occ. eigenvalues --  -20.56541  -1.34869  -0.72564  -0.57474  -0.50863
 Alpha virt. eigenvalues --    0.02971   0.04737   0.13662   0.15781   0.17389
 Alpha virt. eigenvalues --    0.18179   0.22899   0.24416   0.26340   0.30577
 Alpha virt. eigenvalues --    0.31394   0.36499   0.43723   0.46633   0.60281
 Alpha virt. eigenvalues --    0.65276   0.71167   0.71844   0.73094   0.82631
 Alpha virt. eigenvalues --    0.84295   0.89018   0.91210   0.91959   0.92570
 Alpha virt. eigenvalues --    0.92717   0.97352   1.02206   1.04456   1.08526
 Alpha virt. eigenvalues --    1.11511   1.17073   1.17503   1.26069   1.51476
 Alpha virt. eigenvalues --    1.57096   1.59701   1.77255   1.79668   2.00431
 Alpha virt. eigenvalues --    2.11268   2.25794   2.31831   2.31986   2.40940
 Alpha virt. eigenvalues --    2.41114   2.43710   2.46955   2.69184   2.70565
 Alpha virt. eigenvalues --    2.76449   2.86735   2.88112   3.63721   3.77009
 Alpha virt. eigenvalues --    4.00253   4.08740   4.21645   4.22180   4.34369
 Alpha virt. eigenvalues --    4.38176   4.39498   4.43246   4.48376   4.69720
 Alpha virt. eigenvalues --    4.79275   5.11524   5.16876   5.31392   5.31588
 Alpha virt. eigenvalues --    5.49963   5.72923   6.11952   6.53669   6.70563
 Alpha virt. eigenvalues --    6.83724   7.14165   7.25361   7.28217   7.29277
 Alpha virt. eigenvalues --    7.36509   7.39754   7.55021   7.87420   7.96683
 Alpha virt. eigenvalues --    8.76157  15.79509
          Condensed to atoms (all electrons):
               1          2          3
     1  O    8.006416   0.211311   0.211311
     2  H    0.211311   0.562448   0.011721
     3  H    0.211311   0.011721   0.562448
 Mulliken charges:
               1
     1  O   -0.429039
     2  H    0.214520
     3  H    0.214520
 Sum of Mulliken charges =  -0.00000
 Mulliken charges with hydrogens summed into heavy atoms:
               1
     1  O   -0.000000
 Electronic spatial extent (au):  <R**2>=             20.0718
 Charge=             -0.0000 electrons
 Dipole moment (field-independent basis, Debye):
    X=             -0.0000    Y=             -0.0000    Z=             -1.7771  Tot=              1.7771
 Quadrupole moment (field-independent basis, Debye-Ang):
   XX=             -7.8606   YY=             -4.2355   ZZ=             -6.6377
   XY=              0.0000   XZ=              0.0000   YZ=             -0.0000
 Traceless Quadrupole moment (field-independent basis, Debye-Ang):
   XX=             -1.6160   YY=              2.0091   ZZ=             -0.3931
   XY=              0.0000   XZ=              0.0000   YZ=             -0.0000
 Octapole moment (field-independent basis, Debye-Ang**2):
  XXX=              0.0000  YYY=              0.0000  ZZZ=             -0.8617  XYY=             -0.0000
  XXY=              0.0000  XXZ=             -0.1809  XZZ=              0.0000  YZZ=              0.0000
  YYZ=             -1.3383  XYZ=             -0.0000
 Hexadecapole moment (field-independent basis, Debye-Ang**3):
 XXXX=             -7.7539 YYYY=             -6.4021 ZZZZ=             -8.0128 XXXY=             -0.0000
 XXXZ=             -0.0000 YYYX=             -0.0000 YYYZ=              0.0000 ZZZX=             -0.0000
 ZZZY=             -0.0000 XXYY=             -2.7501 XXZZ=             -2.6660 YYZZ=             -2.1624
 XXYZ=             -0.0000 YYXZ=              0.0000 ZZXY=             -0.0000
 N-N= 9.157116024600D+00 E-N=-1.989615110494D+02  KE= 7.624931687910D+01
 Symmetry A1   KE= 6.806615083503D+01
 Symmetry A2   KE= 2.553929515563D-02
 Symmetry B1   KE= 4.448411211366D+00
 Symmetry B2   KE= 3.709215537543D+00
 Breneman (CHELPG) radii used.
 Generate Potential Derived Charges using the Breneman model, NDens= 1.
 Grid spacing= 0.300 Box extension= 2.800
 NStep X,Y,Z=   20     25     22   Total possible points=       11000
 Number of Points to Fit=    3996

 **********************************************************************

            Electrostatic Properties Using The MP2 Density.

 **********************************************************************

       Atomic Center    1 is at   0.000000 -0.000000  0.110812
       Atomic Center    2 is at  -0.000000  0.783976 -0.443248
       Atomic Center    3 is at  -0.000000 -0.783976 -0.443248
    3996 points will be used for fitting atomic charges
 Fitting point charges to electrostatic potential
 Charges from ESP fit, RMS=   0.00431 RRMS=   0.21984:
 ESP charges:
               1
     1  O   -0.696315
     2  H    0.348158
     3  H    0.348158
 Sum of ESP charges =  -0.00000
 ESP charges with hydrogens summed into heavy atoms:
               1
     1  O   -0.000000
 Charge=  -0.00000 Dipole=    -0.0000     0.0000    -1.8531 Tot=     1.8531
 -----------------------------------------------------------------

              Electrostatic Properties (Atomic Units)

 -----------------------------------------------------------------
    Center     Electric         -------- Electric Field --------
               Potential          X             Y             Z
 -----------------------------------------------------------------
    1 Atom    -22.334825
    2 Atom     -0.984341
    3 Atom     -0.984341
 -----------------------------------------------------------------
 Calling FoFJK, ICntrl=  10002127 FMM=F ISym2X=1 I1Cent= 0 IOpClX= 0 NMat=1 NMatS=1 NMatT=0.
 ***** Axes restored to original set *****
 -------------------------------------------------------------------
 Center     Atomic                   Forces (Hartrees/Bohr)
 Number     Number              X              Y              Z
 -------------------------------------------------------------------
      1        8          -0.006337953   -0.008967996    0.000000000
      2        1          -0.001468739    0.007761611   -0.000000000
      3        1           0.007806692    0.001206385   -0.000000000
 -------------------------------------------------------------------
 Cartesian Forces:  Max     0.008967996 RMS     0.005221688

 GradGradGradGradGradGradGradGradGradGradGradGradGradGradGradGradGradGrad
 Berny optimization.
 FormGI is forming the generalized inverse of G from B-inverse, IUseBI=4.
 Internal  Forces:  Max     0.014080626 RMS     0.008217429
 Search for a local minimum.
 Step number   1 out of a maximum of   20
 All quantities printed in internal units (Hartrees-Bohrs-Radians)
 Mixed Optimization -- RFO/linear search
 Second derivative matrix not updated -- first step.
 The second derivative matrix:
                          R1        R2        A1
           R1           0.55473
           R2           0.00000   0.55473
           A1           0.00000   0.00000   0.16000
 ITU=  0
     Eigenvalues ---    0.16000   0.55473   0.55473
 RFO step:  Lambda=-1.23740114D-03 EMin= 1.60000000D-01
 Linear search not attempted -- first point.
 Iteration  1 RMS(Cart)=  0.04911847 RMS(Int)=  0.00141330
 Iteration  2 RMS(Cart)=  0.00121408 RMS(Int)=  0.00000002
 Iteration  3 RMS(Cart)=  0.00000002 RMS(Int)=  0.00000000
 ClnCor:  largest displacement from symmetrization is 3.68D-15 for atom     3.
 Variable       Old X    -DE/DX   Delta X   Delta X   Delta X     New X
                                 (Linear)    (Quad)   (Total)
    R1        1.81414  -0.00147   0.00000  -0.00264  -0.00264   1.81150
    R2        1.81414  -0.00147   0.00000  -0.00264  -0.00264   1.81150
    A1        1.91114  -0.01408   0.00000  -0.08733  -0.08733   1.82381
         Item               Value     Threshold  Converged?
 Maximum Force            0.014081     0.000450     NO 
 RMS     Force            0.008217     0.000300     NO 
 Maximum Displacement     0.052120     0.001800     NO 
 RMS     Displacement     0.049696     0.001200     NO 
 Predicted change in Energy=-6.234273D-04
 GradGradGradGradGradGradGradGradGradGradGradGradGradGradGradGradGradGrad

                          Input orientation:                          
 ---------------------------------------------------------------------
 Center     Atomic      Atomic             Coordinates (Angstroms)
 Number     Number       Type             X           Y           Z
 ---------------------------------------------------------------------
      1          8           0        1.352373   -0.553322   -0.000000
      2          1           0        2.310061   -0.511479   -0.000000
      3          1           0        1.072133    0.363402    0.000000
 ---------------------------------------------------------------------
                    Distance matrix (angstroms):
                    1          2          3
     1  O    0.000000
     2  H    0.958602   0.000000
     3  H    0.958602   1.515877   0.000000
 Stoichiometry    H2O
 Framework group  C2V[C2(O),SGV(H2)]
 Deg. of freedom     2
 Full point group                 C2V     NOp   4
 Largest Abelian subgroup         C2V     NOp   4
 Largest concise Abelian subgroup C2      NOp   2
                         Standard orientation:                         
 ---------------------------------------------------------------------
 Center     Atomic      Atomic             Coordinates (Angstroms)
 Number     Number       Type             X           Y           Z
 ---------------------------------------------------------------------
      1          8           0        0.000000    0.000000    0.117379
      2          1           0       -0.000000    0.757938   -0.469517
      3          1           0       -0.000000   -0.757938   -0.469517
 ---------------------------------------------------------------------
 Rotational constants (GHZ):         819.6430895         436.4497076         284.7982152
 Standard basis: Aug-CC-pVTZ (5D, 7F)
 There are    42 symmetry adapted cartesian basis functions of A1  symmetry.
 There are    12 symmetry adapted cartesian basis functions of A2  symmetry.
 There are    20 symmetry adapted cartesian basis functions of B1  symmetry.
 There are    31 symmetry adapted cartesian basis functions of B2  symmetry.
 There are    35 symmetry adapted basis functions of A1  symmetry.
 There are    12 symmetry adapted basis functions of A2  symmetry.
 There are    18 symmetry adapted basis functions of B1  symmetry.
 There are    27 symmetry adapted basis functions of B2  symmetry.
    92 basis functions,   126 primitive gaussians,   105 cartesian basis functions
     5 alpha electrons        5 beta electrons
       nuclear repulsion energy         9.1815719123 Hartrees.
 NAtoms=    3 NActive=    3 NUniq=    2 SFac= 2.25D+00 NAtFMM=   60 NAOKFM=F Big=F
 Integral buffers will be    131072 words long.
 Raffenetti 1 integral format.
 Two-electron integral symmetry is turned on.
 One-electron integrals computed using PRISM.
 NBasis=    92 RedAO= T EigKep=  3.86D-04  NBF=    35    12    18    27
 NBsUse=    92 1.00D-06 EigRej= -1.00D+00 NBFU=    35    12    18    27
 Initial guess from the checkpoint file:  "h2o.chk"
 B after Tr=     0.000000    0.000000    0.000000
         Rot=    1.000000    0.000000    0.000000    0.000000 Ang=   0.00 deg.
 Initial guess orbital symmetries:
       Occupied  (A1) (A1) (B2) (A1) (B1)
       Virtual   (A1) (B2) (A1) (B1) (A1) (B2) (B2) (A1) (A2) (B1)
                 (A1) (B2) (A1) (B2) (B2) (A1) (A1) (A2) (B1) (A1)
                 (B1) (A1) (B2) (A2) (B1) (B2) (A1) (A1) (B2) (B1)
                 (B2) (A2) (A1) (B2) (A2) (A1) (B1) (B2) (A1) (B2)
                 (A1) (B1) (A2) (A1) (B1) (A1) (B2) (A1) (B2) (B1)
                 (A1) (B2) (A2) (B2) (A1) (A2) (B1) (A1) (B2) (B1)
                 (A2) (B1) (A1) (B2) (A1) (B2) (B2) (A2) (B2) (A1)
                 (B1) (A1) (A1) (B2) (B1) (A1) (B1) (B1) (A1) (A2)
                 (A2) (B2) (A1) (B2) (A1) (B2) (A1)
 ExpMin= 2.53D-02 ExpMax= 1.53D+04 ExpMxC= 5.22D+02 IAcc=3 IRadAn=         5 AccDes= 0.00D+00
 Harris functional with IExCor=  205 and IRadAn=       5 diagonalized for initial guess.
 HarFok:  IExCor=  205 AccDes= 0.00D+00 IRadAn=         5 IDoV= 1 UseB2=F ITyADJ=14
 ICtDFT=  3500011 ScaDFX=  1.000000  1.000000  1.000000  1.000000
 FoFCou: FMM=F IPFlag=           0 FMFlag=      100000 FMFlg1=           0
         NFxFlg=           0 DoJE=T BraDBF=F KetDBF=T FulRan=T
         wScrn=  0.000000 ICntrl=       500 IOpCl=  0 I1Cent=   200000004 NGrid=           0
         NMat0=    1 NMatS0=      1 NMatT0=    0 NMatD0=    1 NMtDS0=    0 NMtDT0=    0
 Petite list used in FoFCou.
 Keep R1 ints in memory in symmetry-blocked form, NReq=13082294.
 Requested convergence on RMS density matrix=1.00D-08 within 128 cycles.
 Requested convergence on MAX density matrix=1.00D-06.
 Requested convergence on             energy=1.00D-06.
 No special actions if energy rises.
 SCF Done:  E(RHF) =  -76.0605173066     A.U. after    8 cycles
            NFock=  8  Conv=0.87D-08     -V/T= 2.0014
 ExpMin= 2.53D-02 ExpMax= 1.53D+04 ExpMxC= 5.22D+02 IAcc=3 IRadAn=         5 AccDes= 0.00D+00
 HarFok:  IExCor=  205 AccDes= 0.00D+00 IRadAn=         5 IDoV=-2 UseB2=F ITyADJ=14
 ICtDFT= 12500011 ScaDFX=  1.000000  1.000000  1.000000  1.000000
 Range of M.O.s used for correlation:     2    92
 NBasis=    92 NAE=     5 NBE=     5 NFC=     1 NFV=     0
 NROrb=     91 NOA=     4 NOB=     4 NVA=    87 NVB=    87

 **** Warning!!: The largest alpha MO coefficient is  0.15975537D+02

 Fully direct method using O(ONN) memory.
 JobTyp=1 Pass  1:  I=   2 to   5 NPSUse=  8 ParTrn=T ParDer=T DoDerP=T.
 Spin components of T(2) and E(2):
     alpha-alpha T2 =       0.8133369774D-02 E2=     -0.3258069872D-01
     alpha-beta  T2 =       0.4722127121D-01 E2=     -0.2032975724D+00
     beta-beta   T2 =       0.8133369774D-02 E2=     -0.3258069872D-01
 ANorm=    0.1031255551D+01
 E2 =    -0.2684589699D+00 EUMP2 =    -0.76328976276457D+02
          IDoAtm=111
          Differentiating once with respect to electric field.
                with respect to dipole field.
          Differentiating once with respect to nuclear coordinates.
 Keep R1 ints in memory in symmetry-blocked form, NReq=13083072.
          There are     1 degrees of freedom in the 1st order CPHF.  IDoFFX=0 NUNeed=     1.
 LinEq1:  Iter=  0 NonCon=     1 RMS=4.63D-03 Max=4.89D-02 NDo=     1
 AX will form     1 AO Fock derivatives at one time.
 LinEq1:  Iter=  1 NonCon=     1 RMS=6.25D-04 Max=4.77D-03 NDo=     1
 LinEq1:  Iter=  2 NonCon=     1 RMS=2.28D-04 Max=1.96D-03 NDo=     1
 LinEq1:  Iter=  3 NonCon=     1 RMS=6.12D-05 Max=4.59D-04 NDo=     1
 LinEq1:  Iter=  4 NonCon=     1 RMS=9.38D-06 Max=6.21D-05 NDo=     1
 LinEq1:  Iter=  5 NonCon=     1 RMS=1.61D-06 Max=1.10D-05 NDo=     1
 LinEq1:  Iter=  6 NonCon=     1 RMS=2.40D-07 Max=1.72D-06 NDo=     1
 LinEq1:  Iter=  7 NonCon=     1 RMS=2.73D-08 Max=2.34D-07 NDo=     1
 LinEq1:  Iter=  8 NonCon=     1 RMS=3.28D-09 Max=3.42D-08 NDo=     1
 LinEq1:  Iter=  9 NonCon=     1 RMS=3.20D-10 Max=2.11D-09 NDo=     1
 LinEq1:  Iter= 10 NonCon=     0 RMS=2.40D-11 Max=2.09D-10 NDo=     1
 Linear equations converged to 1.000D-10 1.000D-09 after    10 iterations.
 End of Minotr F.D. properties file   721 does not exist.
 End of Minotr F.D. properties file   722 does not exist.
 End of Minotr F.D. properties file   788 does not exist.
 Calling FoFJK, ICntrl=  10002127 FMM=F ISym2X=1 I1Cent= 0 IOpClX= 0 NMat=1 NMatS=1 NMatT=0.
 ***** Axes restored to original set *****
 -------------------------------------------------------------------
 Center     Atomic                   Forces (Hartrees/Bohr)
 Number     Number              X              Y              Z
 -------------------------------------------------------------------
      1        8          -0.002208782   -0.003125355    0.000000000
      2        1           0.002580621    0.000519381   -0.000000000
      3        1          -0.000371838    0.002605973   -0.000000000
 -------------------------------------------------------------------
 Cartesian Forces:  Max     0.003125355 RMS     0.001779678

 GradGradGradGradGradGradGradGradGradGradGradGradGradGradGradGradGradGrad
 Berny optimization.
 Using GEDIIS/GDIIS optimizer.
 FormGI is forming the generalized inverse of G from B-inverse, IUseBI=4.
 Internal  Forces:  Max     0.002600832 RMS     0.002165657
 Search for a local minimum.
 Step number   2 out of a maximum of   20
 All quantities printed in internal units (Hartrees-Bohrs-Radians)
 Mixed Optimization -- RFO/linear search
 Update second derivatives using D2CorX and points    1    2
 DE= -6.53D-04 DEPred=-6.23D-04 R= 1.05D+00
 TightC=F SS=  1.41D+00  RLast= 8.74D-02 DXNew= 5.0454D-01 2.6223D-01
 Trust test= 1.05D+00 RLast= 8.74D-02 DXMaxT set to 3.00D-01
 The second derivative matrix:
                          R1        R2        A1
           R1           0.56694
           R2           0.01220   0.56694
           A1           0.02908   0.02908   0.15105
 ITU=  1  0
 Use linear search instead of GDIIS.
     Eigenvalues ---    0.14714   0.55473   0.58306
 RFO step:  Lambda=-2.77735247D-05 EMin= 1.47135825D-01
 Quartic linear search produced a step of  0.04057.
 Iteration  1 RMS(Cart)=  0.00360490 RMS(Int)=  0.00001278
 Iteration  2 RMS(Cart)=  0.00001450 RMS(Int)=  0.00000000
 Iteration  3 RMS(Cart)=  0.00000000 RMS(Int)=  0.00000000
 ClnCor:  largest displacement from symmetrization is 1.09D-15 for atom     3.
 Variable       Old X    -DE/DX   Delta X   Delta X   Delta X     New X
                                 (Linear)    (Quad)   (Total)
    R1        1.81150   0.00260  -0.00011   0.00493   0.00482   1.81632
    R2        1.81150   0.00260  -0.00011   0.00493   0.00482   1.81632
    A1        1.82381  -0.00074  -0.00354  -0.00301  -0.00655   1.81726
         Item               Value     Threshold  Converged?
 Maximum Force            0.002601     0.000450     NO 
 RMS     Force            0.002166     0.000300     NO 
 Maximum Displacement     0.004163     0.001800     NO 
 RMS     Displacement     0.003607     0.001200     NO 
 Predicted change in Energy=-1.503325D-05
 GradGradGradGradGradGradGradGradGradGradGradGradGradGradGradGradGradGrad

                          Input orientation:                          
 ---------------------------------------------------------------------
 Center     Atomic      Atomic             Coordinates (Angstroms)
 Number     Number       Type             X           Y           Z
 ---------------------------------------------------------------------
      1          8           0        1.350816   -0.555525    0.000000
      2          1           0        2.310911   -0.510427   -0.000000
      3          1           0        1.072841    0.364554    0.000000
 ---------------------------------------------------------------------
                    Distance matrix (angstroms):
                    1          2          3
     1  O    0.000000
     2  H    0.961153   0.000000
     3  H    0.961153   1.516050   0.000000
 Stoichiometry    H2O
 Framework group  C2V[C2(O),SGV(H2)]
 Deg. of freedom     2
 Full point group                 C2V     NOp   4
 Largest Abelian subgroup         C2V     NOp   4
 Largest concise Abelian subgroup C2      NOp   2
                         Standard orientation:                         
 ---------------------------------------------------------------------
 Center     Atomic      Atomic             Coordinates (Angstroms)
 Number     Number       Type             X           Y           Z
 ---------------------------------------------------------------------
      1          8           0       -0.000000   -0.000000    0.118189
      2          1           0        0.000000    0.758025   -0.472754
      3          1           0       -0.000000   -0.758025   -0.472754
 ---------------------------------------------------------------------
 Rotational constants (GHZ):         808.4557729         436.3502151         283.3934395
 Standard basis: Aug-CC-pVTZ (5D, 7F)
 There are    42 symmetry adapted cartesian basis functions of A1  symmetry.
 There are    12 symmetry adapted cartesian basis functions of A2  symmetry.
 There are    20 symmetry adapted cartesian basis functions of B1  symmetry.
 There are    31 symmetry adapted cartesian basis functions of B2  symmetry.
 There are    35 symmetry adapted basis functions of A1  symmetry.
 There are    12 symmetry adapted basis functions of A2  symmetry.
 There are    18 symmetry adapted basis functions of B1  symmetry.
 There are    27 symmetry adapted basis functions of B2  symmetry.
    92 basis functions,   126 primitive gaussians,   105 cartesian basis functions
     5 alpha electrons        5 beta electrons
       nuclear repulsion energy         9.1580892687 Hartrees.
 NAtoms=    3 NActive=    3 NUniq=    2 SFac= 2.25D+00 NAtFMM=   60 NAOKFM=F Big=F
 Integral buffers will be    131072 words long.
 Raffenetti 1 integral format.
 Two-electron integral symmetry is turned on.
 One-electron integrals computed using PRISM.
 NBasis=    92 RedAO= T EigKep=  3.89D-04  NBF=    35    12    18    27
 NBsUse=    92 1.00D-06 EigRej= -1.00D+00 NBFU=    35    12    18    27
 Initial guess from the checkpoint file:  "h2o.chk"
 B after Tr=    -0.000000   -0.000000   -0.000000
         Rot=    1.000000    0.000000    0.000000   -0.000000 Ang=   0.00 deg.
 Initial guess orbital symmetries:
       Occupied  (A1) (A1) (B2) (A1) (B1)
       Virtual   (A1) (B2) (A1) (B1) (A1) (B2) (B2) (A1) (A2) (B1)
                 (A1) (B2) (A1) (B2) (B2) (A1) (A1) (A2) (B1) (A1)
                 (B1) (A1) (B2) (B1) (A2) (B2) (A1) (A1) (B2) (B1)
                 (B2) (A2) (A1) (B2) (A2) (A1) (B1) (A1) (B2) (B2)
                 (A1) (B1) (A2) (A1) (A1) (B1) (B2) (A1) (B2) (B1)
                 (A1) (B2) (A2) (B2) (A1) (A2) (B1) (A1) (B2) (B1)
                 (A1) (A2) (B1) (B2) (A1) (B2) (B2) (A2) (B2) (A1)
                 (B1) (A1) (A1) (B2) (B1) (A1) (B1) (B1) (B2) (A2)
                 (A1) (A2) (A1) (A1) (B2) (B2) (A1)
 Keep R1 ints in memory in symmetry-blocked form, NReq=13082294.
 Requested convergence on RMS density matrix=1.00D-08 within 128 cycles.
 Requested convergence on MAX density matrix=1.00D-06.
 Requested convergence on             energy=1.00D-06.
 No special actions if energy rises.
 SCF Done:  E(RHF) =  -76.0603001745     A.U. after    8 cycles
            NFock=  8  Conv=0.23D-08     -V/T= 2.0015
 ExpMin= 2.53D-02 ExpMax= 1.53D+04 ExpMxC= 5.22D+02 IAcc=3 IRadAn=         5 AccDes= 0.00D+00
 HarFok:  IExCor=  205 AccDes= 0.00D+00 IRadAn=         5 IDoV=-2 UseB2=F ITyADJ=14
 ICtDFT= 12500011 ScaDFX=  1.000000  1.000000  1.000000  1.000000
 Range of M.O.s used for correlation:     2    92
 NBasis=    92 NAE=     5 NBE=     5 NFC=     1 NFV=     0
 NROrb=     91 NOA=     4 NOB=     4 NVA=    87 NVB=    87

 **** Warning!!: The largest alpha MO coefficient is  0.15882427D+02

 Fully direct method using O(ONN) memory.
 JobTyp=1 Pass  1:  I=   2 to   5 NPSUse=  8 ParTrn=T ParDer=T DoDerP=T.
 Spin components of T(2) and E(2):
     alpha-alpha T2 =       0.8156855526D-02 E2=     -0.3260799382D-01
     alpha-beta  T2 =       0.4737205522D-01 E2=     -0.2034760748D+00
     beta-beta   T2 =       0.8156855526D-02 E2=     -0.3260799382D-01
 ANorm=    0.1031351427D+01
 E2 =    -0.2686920624D+00 EUMP2 =    -0.76328992236863D+02
          IDoAtm=111
          Differentiating once with respect to electric field.
                with respect to dipole field.
          Differentiating once with respect to nuclear coordinates.
 Keep R1 ints in memory in symmetry-blocked form, NReq=13083072.
          There are     1 degrees of freedom in the 1st order CPHF.  IDoFFX=0 NUNeed=     1.
 LinEq1:  Iter=  0 NonCon=     1 RMS=4.65D-03 Max=4.92D-02 NDo=     1
 AX will form     1 AO Fock derivatives at one time.
 LinEq1:  Iter=  1 NonCon=     1 RMS=6.30D-04 Max=4.82D-03 NDo=     1
 LinEq1:  Iter=  2 NonCon=     1 RMS=2.30D-04 Max=1.98D-03 NDo=     1
 LinEq1:  Iter=  3 NonCon=     1 RMS=6.19D-05 Max=4.64D-04 NDo=     1
 LinEq1:  Iter=  4 NonCon=     1 RMS=9.49D-06 Max=6.35D-05 NDo=     1
 LinEq1:  Iter=  5 NonCon=     1 RMS=1.61D-06 Max=1.10D-05 NDo=     1
 LinEq1:  Iter=  6 NonCon=     1 RMS=2.42D-07 Max=1.75D-06 NDo=     1
 LinEq1:  Iter=  7 NonCon=     1 RMS=2.77D-08 Max=2.37D-07 NDo=     1
 LinEq1:  Iter=  8 NonCon=     1 RMS=3.31D-09 Max=3.46D-08 NDo=     1
 LinEq1:  Iter=  9 NonCon=     1 RMS=3.24D-10 Max=2.14D-09 NDo=     1
 LinEq1:  Iter= 10 NonCon=     0 RMS=2.44D-11 Max=2.14D-10 NDo=     1
 Linear equations converged to 1.000D-10 1.000D-09 after    10 iterations.
 End of Minotr F.D. properties file   721 does not exist.
 End of Minotr F.D. properties file   722 does not exist.
 End of Minotr F.D. properties file   788 does not exist.
 Calling FoFJK, ICntrl=  10002127 FMM=F ISym2X=1 I1Cent= 0 IOpClX= 0 NMat=1 NMatS=1 NMatT=0.
 ***** Axes restored to original set *****
 -------------------------------------------------------------------
 Center     Atomic                   Forces (Hartrees/Bohr)
 Number     Number              X              Y              Z
 -------------------------------------------------------------------
      1        8          -0.000154499   -0.000218611    0.000000000
      2        1           0.000211905    0.000014141   -0.000000000
      3        1          -0.000057406    0.000204471   -0.000000000
 -------------------------------------------------------------------
 Cartesian Forces:  Max     0.000218611 RMS     0.000134110

 GradGradGradGradGradGradGradGradGradGradGradGradGradGradGradGradGradGrad
 Berny optimization.
 Using GEDIIS/GDIIS optimizer.
 FormGI is forming the generalized inverse of G from B-inverse, IUseBI=4.
 Internal  Forces:  Max     0.000212335 RMS     0.000173426
 Search for a local minimum.
 Step number   3 out of a maximum of   20
 All quantities printed in internal units (Hartrees-Bohrs-Radians)
 Mixed Optimization -- En-DIIS/RFO-DIIS
 Update second derivatives using D2CorX and points    1    2    3
 DE= -1.60D-05 DEPred=-1.50D-05 R= 1.06D+00
 TightC=F SS=  1.41D+00  RLast= 9.45D-03 DXNew= 5.0454D-01 2.8358D-02
 Trust test= 1.06D+00 RLast= 9.45D-03 DXMaxT set to 3.00D-01
 The second derivative matrix:
                          R1        R2        A1
           R1           0.54499
           R2          -0.00974   0.54499
           A1           0.02930   0.02930   0.15437
 ITU=  1  1  0
 Use linear search instead of GDIIS.
     Eigenvalues ---    0.14991   0.53971   0.55473
 RFO step:  Lambda=-1.60004553D-08 EMin= 1.49914903D-01
 Quartic linear search produced a step of  0.07606.
 Iteration  1 RMS(Cart)=  0.00025353 RMS(Int)=  0.00000003
 Iteration  2 RMS(Cart)=  0.00000003 RMS(Int)=  0.00000000
 ClnCor:  largest displacement from symmetrization is 9.99D-16 for atom     3.
 Variable       Old X    -DE/DX   Delta X   Delta X   Delta X     New X
                                 (Linear)    (Quad)   (Total)
    R1        1.81632   0.00021   0.00037   0.00004   0.00041   1.81673
    R2        1.81632   0.00021   0.00037   0.00004   0.00041   1.81673
    A1        1.81726  -0.00001  -0.00050   0.00028  -0.00021   1.81705
         Item               Value     Threshold  Converged?
 Maximum Force            0.000212     0.000450     YES
 RMS     Force            0.000173     0.000300     YES
 Maximum Displacement     0.000245     0.001800     YES
 RMS     Displacement     0.000254     0.001200     YES
 Predicted change in Energy=-8.737214D-08
 Optimization completed.
    -- Stationary point found.
                           ----------------------------
                           !   Optimized Parameters   !
                           ! (Angstroms and Degrees)  !
 --------------------------                            --------------------------
 ! Name  Definition              Value          Derivative Info.                !
 --------------------------------------------------------------------------------
 ! R1    R(1,2)                  0.9612         -DE/DX =    0.0002              !
 ! R2    R(1,3)                  0.9612         -DE/DX =    0.0002              !
 ! A1    A(2,1,3)              104.1213         -DE/DX =    0.0                 !
 --------------------------------------------------------------------------------
 GradGradGradGradGradGradGradGradGradGradGradGradGradGradGradGradGradGrad

                          Input orientation:                          
 ---------------------------------------------------------------------
 Center     Atomic      Atomic             Coordinates (Angstroms)
 Number     Number       Type             X           Y           Z
 ---------------------------------------------------------------------
      1          8           0        1.350816   -0.555525    0.000000
      2          1           0        2.310911   -0.510427   -0.000000
      3          1           0        1.072841    0.364554    0.000000
 ---------------------------------------------------------------------
                    Distance matrix (angstroms):
                    1          2          3
     1  O    0.000000
     2  H    0.961153   0.000000
     3  H    0.961153   1.516050   0.000000
 Stoichiometry    H2O
 Framework group  C2V[C2(O),SGV(H2)]
 Deg. of freedom     2
 Full point group                 C2V     NOp   4
 Largest Abelian subgroup         C2V     NOp   4
 Largest concise Abelian subgroup C2      NOp   2
                         Standard orientation:                         
 ---------------------------------------------------------------------
 Center     Atomic      Atomic             Coordinates (Angstroms)
 Number     Number       Type             X           Y           Z
 ---------------------------------------------------------------------
      1          8           0        0.000000    0.000000    0.118189
      2          1           0       -0.000000    0.758025   -0.472754
      3          1           0       -0.000000   -0.758025   -0.472754
 ---------------------------------------------------------------------
 Rotational constants (GHZ):         808.4557729         436.3502151         283.3934395

 **********************************************************************

            Population analysis using the MP2 Density.

 **********************************************************************

 Orbital symmetries:
       Occupied  (A1) (A1) (B2) (A1) (B1)
       Virtual   (A1) (B2) (A1) (B1) (A1) (B2) (B2) (A1) (A2) (B1)
                 (A1) (B2) (A1) (B2) (B2) (A1) (A1) (A2) (B1) (A1)
                 (B1) (A1) (B2) (B1) (A2) (B2) (A1) (A1) (B2) (B1)
                 (B2) (A2) (A1) (B2) (A2) (A1) (B1) (A1) (B2) (B2)
                 (A1) (B1) (A2) (A1) (A1) (B1) (B2) (A1) (B2) (B1)
                 (A1) (B2) (A2) (B2) (A1) (A2) (B1) (A1) (B2) (B1)
                 (A1) (A2) (B1) (B2) (A1) (B2) (A2) (B2) (B2) (A1)
                 (B1) (A1) (A1) (B2) (B1) (A1) (B1) (B1) (B2) (A2)
                 (A1) (A2) (A1) (A1) (B2) (B2) (A1)
 The electronic state is 1-A1.
 Alpha  occ. eigenvalues --  -20.56806  -1.35187  -0.71494  -0.58497  -0.51015
 Alpha virt. eigenvalues --    0.02937   0.04769   0.13589   0.15877   0.17517
 Alpha virt. eigenvalues --    0.18308   0.22714   0.24493   0.26539   0.30003
 Alpha virt. eigenvalues --    0.31014   0.36579   0.43737   0.46607   0.59920
 Alpha virt. eigenvalues --    0.65847   0.70797   0.72263   0.73165   0.83056
 Alpha virt. eigenvalues --    0.84634   0.89215   0.91251   0.91825   0.92238
 Alpha virt. eigenvalues --    0.93079   0.96141   1.02091   1.04314   1.08252
 Alpha virt. eigenvalues --    1.10845   1.17618   1.18184   1.26094   1.51011
 Alpha virt. eigenvalues --    1.53509   1.58269   1.80518   1.82032   1.98409
 Alpha virt. eigenvalues --    2.11733   2.26261   2.31567   2.32668   2.41822
 Alpha virt. eigenvalues --    2.42051   2.44301   2.47950   2.67717   2.69798
 Alpha virt. eigenvalues --    2.77081   2.81547   2.88390   3.65231   3.74109
 Alpha virt. eigenvalues --    4.01755   4.08269   4.16360   4.24699   4.28707
 Alpha virt. eigenvalues --    4.37416   4.37709   4.40460   4.51707   4.72442
 Alpha virt. eigenvalues --    4.84247   5.14780   5.14781   5.24949   5.32253
 Alpha virt. eigenvalues --    5.52074   5.66187   6.17693   6.51307   6.70887
 Alpha virt. eigenvalues --    6.89727   7.13128   7.25105   7.29896   7.31153
 Alpha virt. eigenvalues --    7.32815   7.35428   7.53057   7.89620   7.92172
 Alpha virt. eigenvalues --    8.79943  15.71053
          Condensed to atoms (all electrons):
               1          2          3
     1  O    8.010414   0.209437   0.209437
     2  H    0.209437   0.562494   0.013425
     3  H    0.209437   0.013425   0.562494
 Mulliken charges:
               1
     1  O   -0.429288
     2  H    0.214644
     3  H    0.214644
 Sum of Mulliken charges =  -0.00000
 Mulliken charges with hydrogens summed into heavy atoms:
               1
     1  O   -0.000000
 Electronic spatial extent (au):  <R**2>=             20.0672
 Charge=             -0.0000 electrons
 Dipole moment (field-independent basis, Debye):
    X=             -0.0000    Y=              0.0000    Z=             -1.8591  Tot=              1.8591
 Quadrupole moment (field-independent basis, Debye-Ang):
   XX=             -7.8531   YY=             -4.4596   ZZ=             -6.4748
   XY=              0.0000   XZ=              0.0000   YZ=             -0.0000
 Traceless Quadrupole moment (field-independent basis, Debye-Ang):
   XX=             -1.5906   YY=              1.8029   ZZ=             -0.2123
   XY=              0.0000   XZ=              0.0000   YZ=             -0.0000
 Octapole moment (field-independent basis, Debye-Ang**2):
  XXX=              0.0000  YYY=             -0.0000  ZZZ=             -0.9507  XYY=             -0.0000
  XXY=              0.0000  XXZ=             -0.1861  XZZ=              0.0000  YZZ=              0.0000
  YYZ=             -1.3302  XYZ=             -0.0000
 Hexadecapole moment (field-independent basis, Debye-Ang**3):
 XXXX=             -7.7240 YYYY=             -6.5716 ZZZZ=             -8.0218 XXXY=             -0.0000
 XXXZ=             -0.0000 YYYX=             -0.0000 YYYZ=              0.0000 ZZZX=             -0.0000
 ZZZY=              0.0000 XXYY=             -2.7197 XXZZ=             -2.6743 YYZZ=             -2.1085
 XXYZ=              0.0000 YYXZ=              0.0000 ZZXY=             -0.0000
 N-N= 9.158089268665D+00 E-N=-1.989592997683D+02  KE= 7.625611835806D+01
 Symmetry A1   KE= 6.805064985581D+01
 Symmetry A2   KE= 2.548369514539D-02
 Symmetry B1   KE= 4.452123726904D+00
 Symmetry B2   KE= 3.727861080198D+00
 Breneman (CHELPG) radii used.
 Generate Potential Derived Charges using the Breneman model, NDens= 1.
 Grid spacing= 0.300 Box extension= 2.800
 NStep X,Y,Z=   20     25     22   Total possible points=       11000
 Number of Points to Fit=    4004

 **********************************************************************

            Electrostatic Properties Using The MP2 Density.

 **********************************************************************

       Atomic Center    1 is at   0.000000 -0.000000  0.118189
       Atomic Center    2 is at  -0.000000  0.758025 -0.472754
       Atomic Center    3 is at  -0.000000 -0.758025 -0.472754
    4004 points will be used for fitting atomic charges
 Fitting point charges to electrostatic potential
 Charges from ESP fit, RMS=   0.00416 RRMS=   0.20951:
 ESP charges:
               1
     1  O   -0.675812
     2  H    0.337906
     3  H    0.337906
 Sum of ESP charges =  -0.00000
 ESP charges with hydrogens summed into heavy atoms:
               1
     1  O   -0.000000
 Charge=  -0.00000 Dipole=    -0.0000    -0.0000    -1.9182 Tot=     1.9182
 -----------------------------------------------------------------

              Electrostatic Properties (Atomic Units)

 -----------------------------------------------------------------
    Center     Electric         -------- Electric Field --------
               Potential          X             Y             Z
 -----------------------------------------------------------------
    1 Atom    -22.333864
    2 Atom     -0.986108
    3 Atom     -0.986108
 -----------------------------------------------------------------
 Unable to Open any file for archive entry.
 1\1\GINC-GRA725\FOpt\RMP2-FC\Aug-CC-pVTZ\H2O1\CROWLEY\25-Jan-2022\0\\#
 MP2/aug-cc-pvtz opt density pop=chelpg\\Title Card Required\\0,1\O,1.3
 508160177,-0.5555254089,0.\H,2.3109105107,-0.5104271752,0.\H,1.0728413
 522,0.3645535941,0.\\Version=ES64L-G16RevC.01\State=1-A1\HF=-76.060300
 2\MP2=-76.3289922\RMSD=2.292e-09\RMSF=1.341e-04\Dipole=0.,0.,-0.731441
 8\Quadrupole=-1.1825583,1.3403895,-0.1578311,0.,0.,0.\PG=C02V [C2(O1),
 SGV(H2)]\\@
 The archive entry for this job was punched.


 ADVERTISING--  HE WHO HAS SOMETHING TO SELL AND GOES AND WHISPERS
                IN A WELL, IS NOT SO APT TO GET THE DOLLARS AS HE
                WHO CLIMBS A TREE AND HOLLERS.

                   -- FROM THE BACK OF A SUGAR PACKET
 Job cpu time:       0 days  0 hours  1 minutes 18.3 seconds.
 Elapsed time:       0 days  0 hours  0 minutes 10.2 seconds.
 File lengths (MBytes):  RWF=     10 Int=      0 D2E=      0 Chk=      2 Scr=      1
 Normal termination of Gaussian 16 at Tue Jan 25 11:18:00 2022.
