 Entering Gaussian System, Link 0=g16
 Initial command:
 /opt/software/gaussian/g16.c01/l1.exe "/localscratch/crowley.57124180.0/Gau-21107.inp" -scrdir="/localscratch/crowley.57124180.0/"
 Entering Link 1 = /opt/software/gaussian/g16.c01/l1.exe PID=     21109.
  
 Copyright (c) 1988-2019, Gaussian, Inc.  All Rights Reserved.
  
 This is part of the Gaussian(R) 16 program.  It is based on
 the Gaussian(R) 09 system (copyright 2009, Gaussian, Inc.),
 the Gaussian(R) 03 system (copyright 2003, Gaussian, Inc.),
 the Gaussian(R) 98 system (copyright 1998, Gaussian, Inc.),
 the Gaussian(R) 94 system (copyright 1995, Gaussian, Inc.),
 the Gaussian 92(TM) system (copyright 1992, Gaussian, Inc.),
 the Gaussian 90(TM) system (copyright 1990, Gaussian, Inc.),
 the Gaussian 88(TM) system (copyright 1988, Gaussian, Inc.),
 the Gaussian 86(TM) system (copyright 1986, Carnegie Mellon
 University), and the Gaussian 82(TM) system (copyright 1983,
 Carnegie Mellon University). Gaussian is a federally registered
 trademark of Gaussian, Inc.
  
 This software contains proprietary and confidential information,
 including trade secrets, belonging to Gaussian, Inc.
  
 This software is provided under written license and may be
 used, copied, transmitted, or stored only in accord with that
 written license.
  
 The following legend is applicable only to US Government
 contracts under FAR:
  
                    RESTRICTED RIGHTS LEGEND
  
 Use, reproduction and disclosure by the US Government is
 subject to restrictions as set forth in subparagraphs (a)
 and (c) of the Commercial Computer Software - Restricted
 Rights clause in FAR 52.227-19.
  
 Gaussian, Inc.
 340 Quinnipiac St., Bldg. 40, Wallingford CT 06492
  
  
 ---------------------------------------------------------------
 Warning -- This program may not be used in any manner that
 competes with the business of Gaussian, Inc. or will provide
 assistance to any competitor of Gaussian, Inc.  The licensee
 of this program is prohibited from giving any competitor of
 Gaussian, Inc. access to this program.  By using this program,
 the user acknowledges that Gaussian, Inc. is engaged in the
 business of creating and licensing software in the field of
 computational chemistry and represents and warrants to the
 licensee that it is not a competitor of Gaussian, Inc. and that
 it will not use this program in any manner prohibited above.
 ---------------------------------------------------------------
  

 Cite this work as:
 Gaussian 16, Revision C.01,
 M. J. Frisch, G. W. Trucks, H. B. Schlegel, G. E. Scuseria, 
 M. A. Robb, J. R. Cheeseman, G. Scalmani, V. Barone, 
 G. A. Petersson, H. Nakatsuji, X. Li, M. Caricato, A. V. Marenich, 
 J. Bloino, B. G. Janesko, R. Gomperts, B. Mennucci, H. P. Hratchian, 
 J. V. Ortiz, A. F. Izmaylov, J. L. Sonnenberg, D. Williams-Young, 
 F. Ding, F. Lipparini, F. Egidi, J. Goings, B. Peng, A. Petrone, 
 T. Henderson, D. Ranasinghe, V. G. Zakrzewski, J. Gao, N. Rega, 
 G. Zheng, W. Liang, M. Hada, M. Ehara, K. Toyota, R. Fukuda, 
 J. Hasegawa, M. Ishida, T. Nakajima, Y. Honda, O. Kitao, H. Nakai, 
 T. Vreven, K. Throssell, J. A. Montgomery, Jr., J. E. Peralta, 
 F. Ogliaro, M. J. Bearpark, J. J. Heyd, E. N. Brothers, K. N. Kudin, 
 V. N. Staroverov, T. A. Keith, R. Kobayashi, J. Normand, 
 K. Raghavachari, A. P. Rendell, J. C. Burant, S. S. Iyengar, 
 J. Tomasi, M. Cossi, J. M. Millam, M. Klene, C. Adamo, R. Cammi, 
 J. W. Ochterski, R. L. Martin, K. Morokuma, O. Farkas, 
 J. B. Foresman, and D. J. Fox, Gaussian, Inc., Wallingford CT, 2019.
 
 ******************************************
 Gaussian 16:  ES64L-G16RevC.01  3-Jul-2019
                25-Jan-2022 
 ******************************************
 %chk=nacl.chk
 %nproc=8
 Will use up to    8 processors via shared memory.
 %mem=2000MB
 ------------------------------------------------
 #MP2/aug-cc-pvtz opt=modredundant counterpoise=2
 ------------------------------------------------
 1/18=120,19=15,38=1,62=2/1,3;
 2/9=110,12=2,17=6,18=5,40=1/2;
 1/18=120,19=15,38=1,53=2,62=2,63=101/22;
 3/5=16,6=1,7=10,11=9,25=1,30=1,71=1/1,2,3;
 4//1;
 5/5=2,38=5/2;
 8/6=4,10=1/1;
 9/15=2,16=-3/6;
 10/5=1/2;
 6/7=2,8=2,9=2,10=2/1;
 7/7=1,12=2,33=-1/1,2,3,16;
 1/18=120,19=15,53=2,62=2,63=101/22;
 3/5=7,6=11,7=10,11=9,25=1,30=1,71=1,82=7/1,2,3;
 4//1;
 5/5=2,38=5/2;
 8/6=4,10=1/1;
 9/15=2,16=-3/6;
 10/5=1/2;
 6/7=2,8=2,9=2,10=2/1;
 7/7=1,12=2,33=-1/1,2,3,16;
 1/18=120,19=15,53=2,62=2,63=101/22(-8);
 7/9=1,44=-1,126=2/16;
 1/18=20,19=15,62=2/3(2);
 2/9=110/2;
 99//99;
 2/9=110/2;
 1/18=20,19=15,53=3,62=2,63=101/22;
 3/5=7,6=11,7=10,11=9,25=1,30=1,71=1,82=7/1,2,3;
 4/5=5,16=3,69=1/1;
 5/5=2,38=5/2;
 8/6=4,10=1/1;
 9/15=2,16=-3/6;
 10/5=1/2;
 7/7=1,12=2,33=-1/1,2,3,16;
 1/18=20,19=15,53=3,62=2,63=101/22(-7);
 7/9=1,44=-1,126=2/16;
 1/18=20,19=15,62=2/3(-11);
 2/9=110/2;
 99/9=10/99;
 -------------------
 Title Card Required
 -------------------
 Symbolic Z-matrix:
 Charge =  0 Multiplicity = 1 in supermolecule
 Charge =  1 Multiplicity = 1 in fragment      1.
 Charge = -1 Multiplicity = 1 in fragment      2.
 Na(Fragment=1)        0.        0.        0. 
 Cl(Fragment=2)        0.        0.        1. 
 
 The following ModRedundant input section has been read:
 B       1       2 S  90 0.1000                                                
 

 GradGradGradGradGradGradGradGradGradGradGradGradGradGradGradGradGradGrad
 Berny optimization.
 Initialization pass.
                           ----------------------------
                           !    Initial Parameters    !
                           ! (Angstroms and Degrees)  !
 --------------------------                            --------------------------
 ! Name  Definition              Value          Derivative Info.                !
 --------------------------------------------------------------------------------
 ! R1    R(1,2)                  1.0            Scan                            !
 --------------------------------------------------------------------------------
 Trust Radius=3.00D-01 FncErr=1.00D-07 GrdErr=1.00D-07 EigMax=2.50D+02 EigMin=1.00D-04
 Number of optimizations in scan=  91
 Number of steps in this run=     20 maximum allowed number of steps=    100.
 GradGradGradGradGradGradGradGradGradGradGradGradGradGradGradGradGradGrad

                          Input orientation:                          
 ---------------------------------------------------------------------
 Center     Atomic      Atomic             Coordinates (Angstroms)
 Number     Number       Type             X           Y           Z
 ---------------------------------------------------------------------
      1         11           0        0.000000    0.000000    0.000000
      2         17           0        0.000000    0.000000    1.000000
 ---------------------------------------------------------------------
 Stoichiometry    ClNa
 Framework group  C*V[C*(NaCl)]
 Deg. of freedom     1
 Full point group                 C*V     NOp   4
 Largest Abelian subgroup         C2V     NOp   4
 Largest concise Abelian subgroup C1      NOp   1
                         Standard orientation:                         
 ---------------------------------------------------------------------
 Center     Atomic      Atomic             Coordinates (Angstroms)
 Number     Number       Type             X           Y           Z
 ---------------------------------------------------------------------
      1         11           0        0.000000    0.000000   -0.607143
      2         17           0        0.000000    0.000000    0.392857
 ---------------------------------------------------------------------
 Rotational constants (GHZ):           0.0000000          36.4350399          36.4350399
 Counterpoise: doing full-system calculation.
 Standard basis: Aug-CC-pVTZ (5D, 7F)
 There are    52 symmetry adapted cartesian basis functions of A1  symmetry.
 There are    10 symmetry adapted cartesian basis functions of A2  symmetry.
 There are    28 symmetry adapted cartesian basis functions of B1  symmetry.
 There are    28 symmetry adapted cartesian basis functions of B2  symmetry.
 There are    42 symmetry adapted basis functions of A1  symmetry.
 There are    10 symmetry adapted basis functions of A2  symmetry.
 There are    24 symmetry adapted basis functions of B1  symmetry.
 There are    24 symmetry adapted basis functions of B2  symmetry.
   100 basis functions,   237 primitive gaussians,   118 cartesian basis functions
    14 alpha electrons       14 beta electrons
       nuclear repulsion energy        98.9561384420 Hartrees.
 NAtoms=    2 NActive=    2 NUniq=    2 SFac= 1.00D+00 NAtFMM=   60 NAOKFM=F Big=F
 Integral buffers will be    131072 words long.
 Raffenetti 1 integral format.
 Two-electron integral symmetry is turned on.
 One-electron integrals computed using PRISM.
 NBasis=   100 RedAO= T EigKep=  5.47D-05  NBF=    42    10    24    24
 NBsUse=   100 1.00D-06 EigRej= -1.00D+00 NBFU=    42    10    24    24
 ExpMin= 7.42D-03 ExpMax= 4.56D+05 ExpMxC= 1.44D+03 IAcc=3 IRadAn=         5 AccDes= 0.00D+00
 Harris functional with IExCor=  205 and IRadAn=       5 diagonalized for initial guess.
 HarFok:  IExCor=  205 AccDes= 0.00D+00 IRadAn=         5 IDoV= 1 UseB2=F ITyADJ=14
 ICtDFT=  3500011 ScaDFX=  1.000000  1.000000  1.000000  1.000000
 FoFCou: FMM=F IPFlag=           0 FMFlag=      100000 FMFlg1=           0
         NFxFlg=           0 DoJE=T BraDBF=F KetDBF=T FulRan=T
         wScrn=  0.000000 ICntrl=       500 IOpCl=  0 I1Cent=   200000004 NGrid=           0
         NMat0=    1 NMatS0=      1 NMatT0=    0 NMatD0=    1 NMtDS0=    0 NMtDT0=    0
 Petite list used in FoFCou.
 Initial guess orbital symmetries:
       Occupied  (SG) (SG) (SG) (SG) (PI) (PI) (SG) (SG) (PI) (PI)
                 (SG) (PI) (PI) (SG)
       Virtual   (SG) (PI) (PI) (SG) (SG) (DLTA) (DLTA) (PI) (PI)
                 (SG) (PI) (PI) (SG) (SG) (PI) (PI) (DLTA) (DLTA)
                 (PI) (PI) (SG) (SG) (SG) (PI) (PI) (DLTA) (DLTA)
                 (PHI) (PHI) (PI) (PI) (SG) (DLTA) (DLTA) (PI)
                 (PI) (SG) (PI) (PI) (SG) (DLTA) (DLTA) (SG) (PI)
                 (PI) (DLTA) (DLTA) (PHI) (PHI) (SG) (PI) (PI)
                 (SG) (PI) (PI) (DLTA) (DLTA) (PI) (PI) (SG) (PHI)
                 (PHI) (SG) (DLTA) (DLTA) (PI) (PI) (SG) (SG) (PI)
                 (PI) (SG) (DLTA) (DLTA) (SG) (PI) (PI) (PHI) (PHI)
                 (PI) (PI) (DLTA) (DLTA) (SG) (SG) (SG)
 The electronic state of the initial guess is 1-SG.
 Keep R1 ints in memory in symmetry-blocked form, NReq=16773850.
 Requested convergence on RMS density matrix=1.00D-08 within 128 cycles.
 Requested convergence on MAX density matrix=1.00D-06.
 Requested convergence on             energy=1.00D-06.
 No special actions if energy rises.
 SCF Done:  E(RHF) =  -619.447205407     A.U. after   12 cycles
            NFock= 12  Conv=0.70D-08     -V/T= 1.9896
 ExpMin= 7.42D-03 ExpMax= 4.56D+05 ExpMxC= 1.44D+03 IAcc=3 IRadAn=         5 AccDes= 0.00D+00
 HarFok:  IExCor=  205 AccDes= 0.00D+00 IRadAn=         5 IDoV=-2 UseB2=F ITyADJ=14
 ICtDFT= 12500011 ScaDFX=  1.000000  1.000000  1.000000  1.000000
 Range of M.O.s used for correlation:    11   100
 NBasis=   100 NAE=    14 NBE=    14 NFC=    10 NFV=     0
 NROrb=     90 NOA=     4 NOB=     4 NVA=    86 NVB=    86

 **** Warning!!: The largest alpha MO coefficient is  0.47192566D+02

 Fully direct method using O(ONN) memory.
 JobTyp=1 Pass  1:  I=  11 to  13 NPSUse=  7 ParTrn=T ParDer=T DoDerP=T.
 JobTyp=1 Pass  2:  I=  14 to  14 NPSUse=  7 ParTrn=T ParDer=T DoDerP=T.
 Spin components of T(2) and E(2):
     alpha-alpha T2 =       0.1016700364D-01 E2=     -0.2306901209D-01
     alpha-beta  T2 =       0.6807910386D-01 E2=     -0.1494737385D+00
     beta-beta   T2 =       0.1016700364D-01 E2=     -0.2306901209D-01
 ANorm=    0.1043270392D+01
 E2 =    -0.1956117626D+00 EUMP2 =    -0.61964281716977D+03
          IDoAtm=11
          Differentiating once with respect to electric field.
                with respect to dipole field.
          Differentiating once with respect to nuclear coordinates.
 Keep R1 ints in memory in symmetry-blocked form, NReq=16775050.
          There are     1 degrees of freedom in the 1st order CPHF.  IDoFFX=0 NUNeed=     1.
 LinEq1:  Iter=  0 NonCon=     1 RMS=2.04D-03 Max=2.52D-02 NDo=     1
 AX will form     1 AO Fock derivatives at one time.
 LinEq1:  Iter=  1 NonCon=     1 RMS=7.26D-04 Max=8.22D-03 NDo=     1
 LinEq1:  Iter=  2 NonCon=     1 RMS=2.15D-04 Max=2.62D-03 NDo=     1
 LinEq1:  Iter=  3 NonCon=     1 RMS=3.22D-05 Max=3.37D-04 NDo=     1
 LinEq1:  Iter=  4 NonCon=     1 RMS=8.65D-06 Max=1.13D-04 NDo=     1
 LinEq1:  Iter=  5 NonCon=     1 RMS=1.91D-06 Max=2.24D-05 NDo=     1
 LinEq1:  Iter=  6 NonCon=     1 RMS=2.24D-07 Max=2.77D-06 NDo=     1
 LinEq1:  Iter=  7 NonCon=     1 RMS=3.99D-08 Max=4.42D-07 NDo=     1
 LinEq1:  Iter=  8 NonCon=     1 RMS=6.89D-09 Max=8.18D-08 NDo=     1
 LinEq1:  Iter=  9 NonCon=     1 RMS=1.09D-09 Max=1.10D-08 NDo=     1
 LinEq1:  Iter= 10 NonCon=     1 RMS=1.16D-10 Max=1.82D-09 NDo=     1
 LinEq1:  Iter= 11 NonCon=     0 RMS=1.27D-11 Max=1.83D-10 NDo=     1
 Linear equations converged to 1.000D-10 1.000D-09 after    11 iterations.
 End of Minotr F.D. properties file   721 does not exist.
 End of Minotr F.D. properties file   722 does not exist.
 End of Minotr F.D. properties file   788 does not exist.

 **********************************************************************

            Population analysis using the SCF Density.

 **********************************************************************

 Orbital symmetries:
       Occupied  (SG) (SG) (SG) (SG) (PI) (PI) (SG) (SG) (PI) (PI)
                 (SG) (PI) (PI) (SG)
       Virtual   (SG) (PI) (PI) (SG) (SG) (PI) (PI) (SG) (PI) (PI)
                 (SG) (DLTA) (DLTA) (SG) (PI) (PI) (PI) (PI) (SG)
                 (DLTA) (DLTA) (SG) (SG) (PI) (PI) (DLTA) (DLTA)
                 (PHI) (PHI) (PI) (PI) (SG) (PI) (PI) (DLTA) (DLTA)
                 (SG) (PI) (PI) (SG) (DLTA) (DLTA) (SG) (PI) (PI)
                 (DLTA) (DLTA) (SG) (PHI) (PHI) (PI) (PI) (SG)
                 (PI) (PI) (DLTA) (DLTA) (PI) (PI) (SG) (PHI) (PHI)
                 (SG) (DLTA) (DLTA) (PI) (PI) (SG) (SG) (PI) (PI)
                 (SG) (DLTA) (DLTA) (SG) (PI) (PI) (PHI) (PHI)
                 (DLTA) (DLTA) (PI) (PI) (SG) (SG) (SG)
 The electronic state is 1-SG.
 Alpha  occ. eigenvalues -- -105.00996 -40.91105 -10.78540  -8.27121  -8.22596
 Alpha  occ. eigenvalues --   -8.22596  -3.49860  -2.14867  -2.04504  -2.04504
 Alpha  occ. eigenvalues --   -1.01370  -0.55910  -0.55910  -0.24422
 Alpha virt. eigenvalues --    0.00930   0.01431   0.01431   0.01578   0.04423
 Alpha virt. eigenvalues --    0.04707   0.04707   0.06182   0.06831   0.06831
 Alpha virt. eigenvalues --    0.07163   0.07307   0.07307   0.11451   0.11744
 Alpha virt. eigenvalues --    0.11744   0.17693   0.17693   0.18691   0.21013
 Alpha virt. eigenvalues --    0.21013   0.21803   0.25198   0.25289   0.25289
 Alpha virt. eigenvalues --    0.26534   0.26534   0.27531   0.27531   0.28875
 Alpha virt. eigenvalues --    0.28875   0.29659   0.42668   0.42668   0.42943
 Alpha virt. eigenvalues --    0.42943   0.43693   0.52736   0.52736   0.56466
 Alpha virt. eigenvalues --    0.61009   0.61009   0.62125   0.65278   0.65278
 Alpha virt. eigenvalues --    0.69429   0.69429   0.70791   0.72078   0.72078
 Alpha virt. eigenvalues --    0.74589   0.74589   0.86873   0.93055   0.93055
 Alpha virt. eigenvalues --    1.01635   1.01635   1.07566   1.07566   1.19377
 Alpha virt. eigenvalues --    1.29958   1.29958   1.33618   1.41573   1.41573
 Alpha virt. eigenvalues --    1.54159   1.54159   1.67363   1.95372   2.36812
 Alpha virt. eigenvalues --    2.36812   2.40994   2.54696   2.54696   2.74947
 Alpha virt. eigenvalues --    2.89694   2.89694   3.03704   3.03704   3.10724
 Alpha virt. eigenvalues --    3.10724   3.12090   3.12090   3.39435   4.38873
 Alpha virt. eigenvalues --    6.07499
          Condensed to atoms (all electrons):
               1          2
     1  Na  21.907545  -9.401902
     2  Cl  -9.401902  24.896259
 Mulliken charges:
               1
     1  Na  -1.505643
     2  Cl   1.505643
 Sum of Mulliken charges =  -0.00000
 Mulliken charges with hydrogens summed into heavy atoms:
               1
     1  Na  -1.505643
     2  Cl   1.505643
         Mulliken charges condensed to fragments:
      1     -1.505643
      2      1.505643
 Electronic spatial extent (au):  <R**2>=             73.6093
 Charge=             -0.0000 electrons
 Dipole moment (field-independent basis, Debye):
    X=              0.0000    Y=              0.0000    Z=             -1.3612  Tot=              1.3612
 Quadrupole moment (field-independent basis, Debye-Ang):
   XX=            -22.6377   YY=            -22.6377   ZZ=            -21.6531
   XY=              0.0000   XZ=              0.0000   YZ=              0.0000
 Traceless Quadrupole moment (field-independent basis, Debye-Ang):
   XX=             -0.3282   YY=             -0.3282   ZZ=              0.6564
   XY=              0.0000   XZ=              0.0000   YZ=              0.0000
 Octapole moment (field-independent basis, Debye-Ang**2):
  XXX=              0.0000  YYY=              0.0000  ZZZ=              1.8595  XYY=              0.0000
  XXY=              0.0000  XXZ=              2.2898  XZZ=              0.0000  YZZ=              0.0000
  YYZ=              2.2898  XYZ=              0.0000
 Hexadecapole moment (field-independent basis, Debye-Ang**3):
 XXXX=            -45.0710 YYYY=            -45.0710 ZZZZ=            -82.7021 XXXY=              0.0000
 XXXZ=              0.0000 YYYX=              0.0000 YYYZ=              0.0000 ZZZX=              0.0000
 ZZZY=              0.0000 XXYY=            -15.0237 XXZZ=            -20.5187 YYZZ=            -20.5187
 XXYZ=              0.0000 YYXZ=              0.0000 ZZXY=              0.0000
 N-N= 9.895613844204D+01 E-N=-1.675706291386D+03  KE= 6.259856264381D+02
 Symmetry A1   KE= 5.077733723910D+02
 Symmetry A2   KE=-1.893104011310D-50
 Symmetry B1   KE= 5.910612702357D+01
 Symmetry B2   KE= 5.910612702357D+01
 Calling FoFJK, ICntrl=  10002127 FMM=F ISym2X=1 I1Cent= 0 IOpClX= 0 NMat=1 NMatS=1 NMatT=0.
 ***** Axes restored to original set *****
 Cartesian Forces:  Max     3.630393002 RMS     2.096008377
 CPIOFr:  IOpCl= 0 IRwI=-1 IRwCP=  731 ICalc= -1 LCPTot=       15519 Len1MO=       42364 IndFrg=       15519
 CPIOFr:  IOpCl= 0 IRwI=-1 IRwCP=  731 ICalc=  0 LCPTot=       15519 Len1MO=       42364 IndFrg=       57883
 Counterpoise: doing calculation for fragment   1 using the basis set of the full-system, NewBq=T
 Basis read from rwf:  (5D, 7F)
 There are    52 symmetry adapted cartesian basis functions of A1  symmetry.
 There are    10 symmetry adapted cartesian basis functions of A2  symmetry.
 There are    28 symmetry adapted cartesian basis functions of B1  symmetry.
 There are    28 symmetry adapted cartesian basis functions of B2  symmetry.
 There are    42 symmetry adapted basis functions of A1  symmetry.
 There are    10 symmetry adapted basis functions of A2  symmetry.
 There are    24 symmetry adapted basis functions of B1  symmetry.
 There are    24 symmetry adapted basis functions of B2  symmetry.
   100 basis functions,   237 primitive gaussians,   118 cartesian basis functions
     5 alpha electrons        5 beta electrons
       nuclear repulsion energy         0.0000000000 Hartrees.
 NAtoms=    2 NActive=    2 NUniq=    2 SFac= 1.00D+00 NAtFMM=   60 NAOKFM=F Big=F
 Integral buffers will be    131072 words long.
 Raffenetti 1 integral format.
 Two-electron integral symmetry is turned on.
 One-electron integrals computed using PRISM.
 NBasis=   100 RedAO= T EigKep=  5.47D-05  NBF=    42    10    24    24
 NBsUse=   100 1.00D-06 EigRej= -1.00D+00 NBFU=    42    10    24    24
 ExpMin= 7.42D-03 ExpMax= 4.56D+05 ExpMxC= 1.44D+03 IAcc=3 IRadAn=         5 AccDes= 0.00D+00
 Harris functional with IExCor=  205 and IRadAn=       5 diagonalized for initial guess.
 HarFok:  IExCor=  205 AccDes= 0.00D+00 IRadAn=         5 IDoV= 1 UseB2=F ITyADJ=14
 ICtDFT=  3500011 ScaDFX=  1.000000  1.000000  1.000000  1.000000
 FoFCou: FMM=F IPFlag=           0 FMFlag=      100000 FMFlg1=           0
         NFxFlg=           0 DoJE=T BraDBF=F KetDBF=T FulRan=T
         wScrn=  0.000000 ICntrl=       500 IOpCl=  0 I1Cent=   200000004 NGrid=           0
         NMat0=    1 NMatS0=      1 NMatT0=    0 NMatD0=    1 NMtDS0=    0 NMtDT0=    0
 Petite list used in FoFCou.
 Initial guess orbital symmetries:
       Occupied  (SG) (SG) (SG) (PI) (PI)
       Virtual   (SG) (SG) (PI) (PI) (SG) (SG) (PI) (PI) (PI) (PI)
                 (SG) (DLTA) (DLTA) (SG) (PI) (PI) (SG) (PI) (PI)
                 (SG) (DLTA) (DLTA) (SG) (PI) (PI) (DLTA) (DLTA)
                 (SG) (PHI) (PHI) (PI) (PI) (SG) (PI) (PI) (SG)
                 (DLTA) (DLTA) (SG) (PI) (PI) (SG) (DLTA) (DLTA)
                 (PI) (PI) (SG) (PHI) (PHI) (DLTA) (DLTA) (PI)
                 (PI) (SG) (PI) (PI) (SG) (PHI) (PHI) (PI) (PI)
                 (DLTA) (DLTA) (SG) (SG) (PI) (PI) (DLTA) (DLTA)
                 (PI) (PI) (SG) (SG) (SG) (PI) (PI) (SG) (PHI)
                 (PHI) (DLTA) (DLTA) (PI) (PI) (SG) (PI) (PI) (DLTA)
                 (DLTA) (SG) (SG) (SG) (PI) (PI) (SG) (SG)
 The electronic state of the initial guess is 1-SG.
 Keep R1 ints in memory in symmetry-blocked form, NReq=16773850.
 Requested convergence on RMS density matrix=1.00D-08 within 128 cycles.
 Requested convergence on MAX density matrix=1.00D-06.
 Requested convergence on             energy=1.00D-06.
 No special actions if energy rises.
 SCF Done:  E(RHF) =  -161.676084143     A.U. after    7 cycles
            NFock=  7  Conv=0.57D-08     -V/T= 2.0000
 Range of M.O.s used for correlation:     6   100
 NBasis=   100 NAE=     5 NBE=     5 NFC=     5 NFV=     0
 NROrb=     95 NOA=     0 NOB=     0 NVA=    95 NVB=    95
 *** There is no correlation energy for this system ***

 **** Warning!!: The largest alpha MO coefficient is  0.47642928D+02

 Fully direct method using O(ONN) memory.
 No occupied orbitals for this spin space.
 Spin components of T(2) and E(2):
     alpha-alpha T2 =       0.0000000000D+00 E2=      0.0000000000D+00
     alpha-beta  T2 =       0.0000000000D+00 E2=      0.0000000000D+00
     beta-beta   T2 =       0.0000000000D+00 E2=      0.0000000000D+00
 ANorm=    0.1000000000D+01
 E2 =     0.0000000000D+00 EUMP2 =    -0.16167608414267D+03
          IDoAtm=11
          Differentiating once with respect to electric field.
                with respect to dipole field.
          Differentiating once with respect to nuclear coordinates.
 Keep R1 ints in memory in symmetry-blocked form, NReq=16775055.
          There are     1 degrees of freedom in the 1st order CPHF.  IDoFFX=0 NUNeed=     1.
 LinEq1:  Iter=  0 NonCon=     0 RMS=0.00D+00 Max=0.00D+00 NDo=     0
 End of Minotr F.D. properties file   721 does not exist.
 End of Minotr F.D. properties file   722 does not exist.
 End of Minotr F.D. properties file   788 does not exist.

 **********************************************************************

            Population analysis using the SCF Density.

 **********************************************************************

 Orbital symmetries:
       Occupied  (SG) (SG) (PI) (PI) (SG)
       Virtual   (SG) (PI) (PI) (SG) (SG) (PI) (PI) (SG) (PI) (PI)
                 (SG) (DLTA) (DLTA) (SG) (PI) (PI) (SG) (SG) (PI)
                 (PI) (DLTA) (DLTA) (SG) (PI) (PI) (DLTA) (DLTA)
                 (PHI) (PHI) (SG) (PI) (PI) (SG) (PI) (PI) (SG)
                 (DLTA) (DLTA) (SG) (PI) (PI) (SG) (DLTA) (DLTA)
                 (PI) (PI) (SG) (PHI) (PHI) (DLTA) (DLTA) (PI)
                 (PI) (SG) (PI) (PI) (SG) (PHI) (PHI) (PI) (PI)
                 (DLTA) (DLTA) (SG) (PI) (PI) (SG) (DLTA) (DLTA)
                 (PI) (PI) (SG) (SG) (SG) (SG) (PI) (PI) (PHI)
                 (PHI) (DLTA) (DLTA) (PI) (PI) (SG) (PI) (PI) (DLTA)
                 (DLTA) (SG) (SG) (SG) (PI) (PI) (SG) (SG)
 The electronic state is 1-SG.
 Alpha  occ. eigenvalues --  -40.75946  -3.07365  -1.79708  -1.79708  -1.79690
 Alpha virt. eigenvalues --   -0.18180  -0.10943  -0.10943  -0.10943  -0.07004
 Alpha virt. eigenvalues --   -0.05005  -0.05005  -0.04999  -0.04997  -0.04997
 Alpha virt. eigenvalues --   -0.04995  -0.04901  -0.04901  -0.00968  -0.00803
 Alpha virt. eigenvalues --   -0.00803  -0.00373   0.02652   0.02655   0.02655
 Alpha virt. eigenvalues --    0.06282   0.06282   0.08319   0.08431   0.08431
 Alpha virt. eigenvalues --    0.10540   0.10540   0.10822   0.10822   0.11537
 Alpha virt. eigenvalues --    0.13894   0.13894   0.18586   0.18764   0.18764
 Alpha virt. eigenvalues --    0.27301   0.35447   0.35447   0.36648   0.37208
 Alpha virt. eigenvalues --    0.37208   0.42662   0.43361   0.43361   0.43845
 Alpha virt. eigenvalues --    0.43845   0.51552   0.52272   0.52272   0.52667
 Alpha virt. eigenvalues --    0.52667   0.57961   0.57961   0.58487   0.61760
 Alpha virt. eigenvalues --    0.61760   1.08756   1.16015   1.16015   1.21840
 Alpha virt. eigenvalues --    1.21840   1.25471   1.25471   1.31287   1.33241
 Alpha virt. eigenvalues --    1.33241   1.35500   1.36688   1.36688   1.47877
 Alpha virt. eigenvalues --    1.47877   1.60064   2.09231   3.27219   3.57141
 Alpha virt. eigenvalues --    3.59648   3.59648   3.60450   3.60450   3.70428
 Alpha virt. eigenvalues --    3.70428   3.81015   3.81015   4.09559   4.26121
 Alpha virt. eigenvalues --    4.26121   4.34155   4.34155   4.53026   5.29685
 Alpha virt. eigenvalues --   14.21708  27.58072  27.58072  27.66280 160.31289
          Condensed to atoms (all electrons):
               1          2
     1  Na  10.048731  -0.026499
     2  Cl  -0.026499   0.004268
 Mulliken charges:
               1
     1  Na   0.977769
     2  Cl   0.022231
 Sum of Mulliken charges =   1.00000
 Mulliken charges with hydrogens summed into heavy atoms:
               1
     1  Na   0.977769
     2  Cl   0.022231
         Mulliken charges condensed to fragments:
      1      0.977769
      2      0.022231
 Electronic spatial extent (au):  <R**2>=             19.5779
 Charge=              1.0000 electrons
 Dipole moment (field-independent basis, Debye):
    X=              0.0000    Y=              0.0000    Z=             -2.9164  Tot=              2.9164
 Quadrupole moment (field-independent basis, Debye-Ang):
   XX=             -2.8759   YY=             -2.8759   ZZ=             -1.1050
   XY=              0.0000   XZ=              0.0000   YZ=              0.0000
 Traceless Quadrupole moment (field-independent basis, Debye-Ang):
   XX=             -0.5903   YY=             -0.5903   ZZ=              1.1806
   XY=              0.0000   XZ=              0.0000   YZ=              0.0000
 Octapole moment (field-independent basis, Debye-Ang**2):
  XXX=              0.0000  YYY=              0.0000  ZZZ=              4.1632  XYY=              0.0000
  XXY=              0.0000  XXZ=              1.7458  XZZ=              0.0000  YZZ=              0.0000
  YYZ=              1.7458  XYZ=              0.0000
 Hexadecapole moment (field-independent basis, Debye-Ang**3):
 XXXX=             -0.8716 YYYY=             -0.8716 ZZZZ=             -6.5792 XXXY=              0.0000
 XXXZ=              0.0000 YYYX=              0.0000 YYYZ=              0.0000 ZZZX=              0.0000
 ZZZY=              0.0000 XXYY=             -0.2905 XXZZ=             -1.3499 YYZZ=             -1.3499
 XXYZ=              0.0000 YYXZ=              0.0000 ZZXY=              0.0000
 N-N= 0.000000000000D+00 E-N=-3.865854888417D+02  KE= 1.616816732285D+02
 Symmetry A1   KE= 1.380425748895D+02
 Symmetry A2   KE=-2.927002596198D-53
 Symmetry B1   KE= 1.181954916948D+01
 Symmetry B2   KE= 1.181954916948D+01
 Calling FoFJK, ICntrl=  10002127 FMM=F ISym2X=1 I1Cent= 0 IOpClX= 0 NMat=1 NMatS=1 NMatT=0.
 ***** Axes restored to original set *****
 Cartesian Forces:  Max     0.000025141 RMS     0.000014515
 CPIOFr:  IOpCl= 0 IRwI=-1 IRwCP=  731 ICalc=  1 LCPTot=       15519 Len1MO=       42364 IndFrg=      100247
 Counterpoise: doing calculation for fragment   2 using the basis set of the full-system, NewBq=T
 Basis read from rwf:  (5D, 7F)
 There are    52 symmetry adapted cartesian basis functions of A1  symmetry.
 There are    10 symmetry adapted cartesian basis functions of A2  symmetry.
 There are    28 symmetry adapted cartesian basis functions of B1  symmetry.
 There are    28 symmetry adapted cartesian basis functions of B2  symmetry.
 There are    42 symmetry adapted basis functions of A1  symmetry.
 There are    10 symmetry adapted basis functions of A2  symmetry.
 There are    24 symmetry adapted basis functions of B1  symmetry.
 There are    24 symmetry adapted basis functions of B2  symmetry.
   100 basis functions,   237 primitive gaussians,   118 cartesian basis functions
     9 alpha electrons        9 beta electrons
       nuclear repulsion energy         0.0000000000 Hartrees.
 NAtoms=    2 NActive=    2 NUniq=    2 SFac= 1.00D+00 NAtFMM=   60 NAOKFM=F Big=F
 Integral buffers will be    131072 words long.
 Raffenetti 1 integral format.
 Two-electron integral symmetry is turned on.
 One-electron integrals computed using PRISM.
 NBasis=   100 RedAO= T EigKep=  5.47D-05  NBF=    42    10    24    24
 NBsUse=   100 1.00D-06 EigRej= -1.00D+00 NBFU=    42    10    24    24
 ExpMin= 7.42D-03 ExpMax= 4.56D+05 ExpMxC= 1.44D+03 IAcc=3 IRadAn=         5 AccDes= 0.00D+00
 Harris functional with IExCor=  205 and IRadAn=       5 diagonalized for initial guess.
 HarFok:  IExCor=  205 AccDes= 0.00D+00 IRadAn=         5 IDoV= 1 UseB2=F ITyADJ=14
 ICtDFT=  3500011 ScaDFX=  1.000000  1.000000  1.000000  1.000000
 FoFCou: FMM=F IPFlag=           0 FMFlag=      100000 FMFlg1=           0
         NFxFlg=           0 DoJE=T BraDBF=F KetDBF=T FulRan=T
         wScrn=  0.000000 ICntrl=       500 IOpCl=  0 I1Cent=   200000004 NGrid=           0
         NMat0=    1 NMatS0=      1 NMatT0=    0 NMatD0=    1 NMtDS0=    0 NMtDT0=    0
 Petite list used in FoFCou.
 Initial guess orbital symmetries:
       Occupied  (SG) (SG) (SG) (PI) (PI) (SG) (PI) (PI) (SG)
       Virtual   (SG) (SG) (PI) (PI) (SG) (SG) (PI) (PI) (PI) (PI)
                 (SG) (DLTA) (DLTA) (SG) (PI) (PI) (SG) (PI) (PI)
                 (DLTA) (DLTA) (SG) (SG) (PI) (PI) (PHI) (PHI)
                 (DLTA) (DLTA) (SG) (PI) (PI) (SG) (DLTA) (DLTA)
                 (PI) (PI) (SG) (PI) (PI) (DLTA) (DLTA) (SG) (SG)
                 (PI) (PI) (PI) (PI) (PHI) (PHI) (DLTA) (DLTA)
                 (SG) (SG) (DLTA) (DLTA) (PI) (PI) (PI) (PI) (SG)
                 (PHI) (PHI) (DLTA) (DLTA) (PI) (PI) (SG) (SG)
                 (SG) (PI) (PI) (DLTA) (DLTA) (SG) (PI) (PI) (SG)
                 (PHI) (PHI) (PI) (PI) (DLTA) (DLTA) (SG) (SG)
                 (SG) (PI) (PI) (SG) (SG)
 The electronic state of the initial guess is 1-SG.
 Keep R1 ints in memory in symmetry-blocked form, NReq=16773850.
 Requested convergence on RMS density matrix=1.00D-08 within 128 cycles.
 Requested convergence on MAX density matrix=1.00D-06.
 Requested convergence on             energy=1.00D-06.
 No special actions if energy rises.
 SCF Done:  E(RHF) =  -459.573529779     A.U. after    9 cycles
            NFock=  9  Conv=0.49D-08     -V/T= 2.0000
 ExpMin= 7.42D-03 ExpMax= 4.56D+05 ExpMxC= 1.44D+03 IAcc=3 IRadAn=         5 AccDes= 0.00D+00
 HarFok:  IExCor=  205 AccDes= 0.00D+00 IRadAn=         5 IDoV=-2 UseB2=F ITyADJ=14
 ICtDFT= 12500011 ScaDFX=  1.000000  1.000000  1.000000  1.000000
 Range of M.O.s used for correlation:     6   100
 NBasis=   100 NAE=     9 NBE=     9 NFC=     5 NFV=     0
 NROrb=     95 NOA=     4 NOB=     4 NVA=    91 NVB=    91

 **** Warning!!: The largest alpha MO coefficient is  0.51315940D+02

 Fully direct method using O(ONN) memory.
 JobTyp=1 Pass  1:  I=   6 to   8 NPSUse=  7 ParTrn=T ParDer=T DoDerP=T.
 JobTyp=1 Pass  2:  I=   9 to   9 NPSUse=  7 ParTrn=T ParDer=T DoDerP=T.
 Spin components of T(2) and E(2):
     alpha-alpha T2 =       0.1097883273D-01 E2=     -0.2604300359D-01
     alpha-beta  T2 =       0.5966481318D-01 E2=     -0.1578470292D+00
     beta-beta   T2 =       0.1097883273D-01 E2=     -0.2604300359D-01
 ANorm=    0.1040010807D+01
 E2 =    -0.2099330364D+00 EUMP2 =    -0.45978346281565D+03
          IDoAtm=11
          Differentiating once with respect to electric field.
                with respect to dipole field.
          Differentiating once with respect to nuclear coordinates.
 Keep R1 ints in memory in symmetry-blocked form, NReq=16775055.
          There are     1 degrees of freedom in the 1st order CPHF.  IDoFFX=0 NUNeed=     1.
 LinEq1:  Iter=  0 NonCon=     1 RMS=2.24D-03 Max=2.14D-02 NDo=     1
 AX will form     1 AO Fock derivatives at one time.
 LinEq1:  Iter=  1 NonCon=     1 RMS=2.51D-04 Max=2.55D-03 NDo=     1
 LinEq1:  Iter=  2 NonCon=     1 RMS=9.58D-05 Max=9.50D-04 NDo=     1
 LinEq1:  Iter=  3 NonCon=     1 RMS=1.04D-05 Max=8.19D-05 NDo=     1
 LinEq1:  Iter=  4 NonCon=     1 RMS=1.35D-06 Max=1.26D-05 NDo=     1
 LinEq1:  Iter=  5 NonCon=     1 RMS=3.18D-07 Max=3.62D-06 NDo=     1
 LinEq1:  Iter=  6 NonCon=     1 RMS=6.22D-08 Max=6.54D-07 NDo=     1
 LinEq1:  Iter=  7 NonCon=     1 RMS=9.62D-09 Max=7.72D-08 NDo=     1
 LinEq1:  Iter=  8 NonCon=     1 RMS=8.96D-10 Max=8.22D-09 NDo=     1
 LinEq1:  Iter=  9 NonCon=     0 RMS=7.12D-11 Max=8.64D-10 NDo=     1
 Linear equations converged to 1.000D-10 1.000D-09 after     9 iterations.
 End of Minotr F.D. properties file   721 does not exist.
 End of Minotr F.D. properties file   722 does not exist.
 End of Minotr F.D. properties file   788 does not exist.

 **********************************************************************

            Population analysis using the SCF Density.

 **********************************************************************

 Orbital symmetries:
       Occupied  (SG) (SG) (PI) (PI) (SG) (SG) (PI) (PI) (SG)
       Virtual   (SG) (PI) (PI) (SG) (SG) (PI) (PI) (SG) (PI) (PI)
                 (DLTA) (DLTA) (SG) (SG) (PI) (PI) (SG) (PI) (PI)
                 (DLTA) (DLTA) (SG) (PI) (PI) (DLTA) (DLTA) (SG)
                 (PHI) (PHI) (SG) (PI) (PI) (SG) (PI) (PI) (SG)
                 (DLTA) (DLTA) (PI) (PI) (DLTA) (DLTA) (SG) (PI)
                 (PI) (SG) (DLTA) (DLTA) (PHI) (PHI) (PI) (PI)
                 (SG) (SG) (PI) (PI) (DLTA) (DLTA) (PI) (PI) (SG)
                 (PHI) (PHI) (PI) (PI) (DLTA) (DLTA) (SG) (SG)
                 (SG) (PI) (PI) (DLTA) (DLTA) (SG) (PI) (PI) (SG)
                 (PHI) (PHI) (PI) (PI) (DLTA) (DLTA) (SG) (SG)
                 (SG) (PI) (PI) (SG) (SG)
 The electronic state is 1-SG.
 Alpha  occ. eigenvalues -- -104.50684 -10.22996  -7.69601  -7.69601  -7.69600
 Alpha  occ. eigenvalues --   -0.73348  -0.15031  -0.15031  -0.15031
 Alpha virt. eigenvalues --    0.07838   0.08078   0.08078   0.09774   0.14684
 Alpha virt. eigenvalues --    0.15134   0.15134   0.17449   0.17579   0.17579
 Alpha virt. eigenvalues --    0.18714   0.18714   0.20661   0.27327   0.28411
 Alpha virt. eigenvalues --    0.28411   0.32887   0.33969   0.33969   0.41447
 Alpha virt. eigenvalues --    0.41447   0.41961   0.42664   0.42664   0.43486
 Alpha virt. eigenvalues --    0.43486   0.44154   0.44352   0.44352   0.48988
 Alpha virt. eigenvalues --    0.50965   0.50965   0.62062   0.68059   0.68059
 Alpha virt. eigenvalues --    0.74431   0.75144   0.75144   0.77344   0.77344
 Alpha virt. eigenvalues --    0.88813   0.88813   0.91422   0.94946   0.94946
 Alpha virt. eigenvalues --    0.95405   0.98059   0.98059   1.00790   1.00790
 Alpha virt. eigenvalues --    1.02368   1.02368   1.09999   1.31098   1.35454
 Alpha virt. eigenvalues --    1.35454   1.40300   1.40300   1.42777   1.42777
 Alpha virt. eigenvalues --    1.48596   1.62505   1.62505   1.81129   1.81129
 Alpha virt. eigenvalues --    1.82273   1.82273   1.84638   2.01744   2.67072
 Alpha virt. eigenvalues --    2.98163   2.98163   2.98748   2.98748   3.17820
 Alpha virt. eigenvalues --    3.32352   3.32352   3.43183   3.45824   3.45824
 Alpha virt. eigenvalues --    3.62032   3.62032   3.63883   3.63883   3.67845
 Alpha virt. eigenvalues --    6.17483   7.29060   9.23237   9.23237  12.83944
 Alpha virt. eigenvalues --   65.51576
          Condensed to atoms (all electrons):
               1          2
     1  Na   0.012916  -0.075748
     2  Cl  -0.075748  18.138580
 Mulliken charges:
               1
     1  Na   0.062832
     2  Cl  -1.062832
 Sum of Mulliken charges =  -1.00000
 Mulliken charges with hydrogens summed into heavy atoms:
               1
     1  Na   0.062832
     2  Cl  -1.062832
         Mulliken charges condensed to fragments:
      1      0.062832
      2     -1.062832
 Electronic spatial extent (au):  <R**2>=             48.3537
 Charge=             -1.0000 electrons
 Dipole moment (field-independent basis, Debye):
    X=              0.0000    Y=              0.0000    Z=             -1.8888  Tot=              1.8888
 Quadrupole moment (field-independent basis, Debye-Ang):
   XX=            -17.2265   YY=            -17.2265   ZZ=            -17.9822
   XY=              0.0000   XZ=              0.0000   YZ=              0.0000
 Traceless Quadrupole moment (field-independent basis, Debye-Ang):
   XX=              0.2519   YY=              0.2519   ZZ=             -0.5038
   XY=              0.0000   XZ=              0.0000   YZ=              0.0000
 Octapole moment (field-independent basis, Debye-Ang**2):
  XXX=              0.0000  YYY=              0.0000  ZZZ=            -20.6314  XYY=              0.0000
  XXY=              0.0000  XXZ=             -6.7673  XZZ=              0.0000  YZZ=              0.0000
  YYZ=             -6.7673  XYZ=              0.0000
 Hexadecapole moment (field-independent basis, Debye-Ang**3):
 XXXX=            -29.2886 YYYY=            -29.2886 ZZZZ=            -45.6329 XXXY=              0.0000
 XXXZ=              0.0000 YYYX=              0.0000 YYYZ=              0.0000 ZZZX=              0.0000
 ZZZY=              0.0000 XXYY=             -9.7629 XXZZ=            -12.4710 YYZZ=            -12.4710
 XXYZ=              0.0000 YYXZ=              0.0000 ZZXY=              0.0000
 N-N= 0.000000000000D+00 E-N=-1.100687604332D+03  KE= 4.595589976793D+02
 Symmetry A1   KE= 3.690082491473D+02
 Symmetry A2   KE= 1.208641054164D-53
 Symmetry B1   KE= 4.527537426599D+01
 Symmetry B2   KE= 4.527537426599D+01
 Calling FoFJK, ICntrl=  10002127 FMM=F ISym2X=1 I1Cent= 0 IOpClX= 0 NMat=1 NMatS=1 NMatT=0.
 ***** Axes restored to original set *****
 Cartesian Forces:  Max     0.001546852 RMS     0.000893076
 CPIOFr:  IOpCl= 0 IRwI=-1 IRwCP=  731 ICalc=  2 LCPTot=       15519 Len1MO=       42364 IndFrg=      142611
 Counterpoise: doing calculation for fragment   1 using the basis set of the fragment.
 Basis read from rwf:  (5D, 7F)
 There are    26 symmetry adapted cartesian basis functions of A1  symmetry.
 There are     5 symmetry adapted cartesian basis functions of A2  symmetry.
 There are    14 symmetry adapted cartesian basis functions of B1  symmetry.
 There are    14 symmetry adapted cartesian basis functions of B2  symmetry.
 There are    21 symmetry adapted basis functions of A1  symmetry.
 There are     5 symmetry adapted basis functions of A2  symmetry.
 There are    12 symmetry adapted basis functions of B1  symmetry.
 There are    12 symmetry adapted basis functions of B2  symmetry.
    50 basis functions,   123 primitive gaussians,    59 cartesian basis functions
     5 alpha electrons        5 beta electrons
       nuclear repulsion energy         0.0000000000 Hartrees.
 NAtoms=    2 NActive=    1 NUniq=    1 SFac= 1.00D+00 NAtFMM=   60 NAOKFM=F Big=F
 Integral buffers will be    131072 words long.
 Raffenetti 1 integral format.
 Two-electron integral symmetry is turned on.
 One-electron integrals computed using PRISM.
 NBasis=    50 RedAO= T EigKep=  3.09D-02  NBF=    21     5    12    12
 NBsUse=    50 1.00D-06 EigRej= -1.00D+00 NBFU=    21     5    12    12
 ExpMin= 7.42D-03 ExpMax= 4.23D+05 ExpMxC= 1.33D+03 IAcc=3 IRadAn=         5 AccDes= 0.00D+00
 Harris functional with IExCor=  205 and IRadAn=       5 diagonalized for initial guess.
 HarFok:  IExCor=  205 AccDes= 0.00D+00 IRadAn=         5 IDoV= 1 UseB2=F ITyADJ=14
 ICtDFT=  3500011 ScaDFX=  1.000000  1.000000  1.000000  1.000000
 FoFCou: FMM=F IPFlag=           0 FMFlag=      100000 FMFlg1=           0
         NFxFlg=           0 DoJE=T BraDBF=F KetDBF=T FulRan=T
         wScrn=  0.000000 ICntrl=       500 IOpCl=  0 I1Cent=   200000004 NGrid=           0
         NMat0=    1 NMatS0=      1 NMatT0=    0 NMatD0=    1 NMtDS0=    0 NMtDT0=    0
 Petite list used in FoFCou.
 Initial guess orbital symmetries:
       Occupied  (SG) (SG) (SG) (PI) (PI)
       Virtual   (SG) (SG) (PI) (PI) (SG) (PI) (SG) (PI) (?A) (PI)
                 (PI) (?A) (?A) (SG) (PI) (PI) (SG) (?B) (PI) (PI)
                 (?B) (?B) (DLTA) (?C) (?C) (DLTA) (SG) (?C) (?C)
                 (SG) (PI) (PI) (?D) (PI) (PI) (?D) (?D) (DLTA)
                 (?C) (?C) (DLTA) (?C) (?C) (SG) (SG)
 The electronic state of the initial guess is 1-SG.
 Keep R1 ints in memory in symmetry-blocked form, NReq=4749913.
 Requested convergence on RMS density matrix=1.00D-08 within 128 cycles.
 Requested convergence on MAX density matrix=1.00D-06.
 Requested convergence on             energy=1.00D-06.
 No special actions if energy rises.
 SCF Done:  E(RHF) =  -161.676018791     A.U. after    5 cycles
            NFock=  5  Conv=0.43D-08     -V/T= 2.0002
 Range of M.O.s used for correlation:     6    50
 NBasis=    50 NAE=     5 NBE=     5 NFC=     5 NFV=     0
 NROrb=     45 NOA=     0 NOB=     0 NVA=    45 NVB=    45
 *** There is no correlation energy for this system ***
 Fully direct method using O(ONN) memory.
 No occupied orbitals for this spin space.
 Spin components of T(2) and E(2):
     alpha-alpha T2 =       0.0000000000D+00 E2=      0.0000000000D+00
     alpha-beta  T2 =       0.0000000000D+00 E2=      0.0000000000D+00
     beta-beta   T2 =       0.0000000000D+00 E2=      0.0000000000D+00
 ANorm=    0.1000000000D+01
 E2 =     0.0000000000D+00 EUMP2 =    -0.16167601879064D+03
          IDoAtm=10
          Differentiating once with respect to electric field.
                with respect to dipole field.
          Differentiating once with respect to nuclear coordinates.
 Keep R1 ints in memory in symmetry-blocked form, NReq=4750436.
          There are     1 degrees of freedom in the 1st order CPHF.  IDoFFX=0 NUNeed=     1.
 LinEq1:  Iter=  0 NonCon=     0 RMS=0.00D+00 Max=0.00D+00 NDo=     0
 End of Minotr F.D. properties file   721 does not exist.
 End of Minotr F.D. properties file   722 does not exist.
 End of Minotr F.D. properties file   788 does not exist.

 **********************************************************************

            Population analysis using the SCF Density.

 **********************************************************************

 Orbital symmetries:
       Occupied  (SG) (SG) (PI) (SG) (PI)
       Virtual   (SG) (SG) (PI) (PI) (SG) (PI) (SG) (PI) (?A) (?A)
                 (?A) (PI) (PI) (SG) (PI) (PI) (SG) (?B) (PI) (?B)
                 (?B) (PI) (?C) (?D) (?D) (?C) (?D) (?C) (?C) (SG)
                 (PI) (PI) (PI) (?E) (?E) (PI) (?E) (?F) (?C) (?C)
                 (?F) (?F) (?C) (?C) (SG)
 The electronic state is 1-SG.
 Alpha  occ. eigenvalues --  -40.76395  -3.07544  -1.79857  -1.79857  -1.79857
 Alpha virt. eigenvalues --   -0.18185  -0.10944  -0.10944  -0.10944  -0.07001
 Alpha virt. eigenvalues --   -0.04998  -0.04998  -0.04998  -0.04900  -0.04900
 Alpha virt. eigenvalues --   -0.04900  -0.04900  -0.04900  -0.00742  -0.00742
 Alpha virt. eigenvalues --   -0.00742   0.00280   0.06504   0.06504   0.06504
 Alpha virt. eigenvalues --    0.06504   0.06504   0.10897   0.10897   0.10897
 Alpha virt. eigenvalues --    0.10897   0.10897   0.10897   0.10897   0.15761
 Alpha virt. eigenvalues --    0.15761   0.15761   0.36578   0.36578   0.36578
 Alpha virt. eigenvalues --    0.36578   0.36578   0.52788   0.52788   0.52788
 Alpha virt. eigenvalues --    0.52788   0.52788   0.52788   0.52788   1.50247
          Condensed to atoms (all electrons):
               1
     1  Na  10.000000
 Mulliken charges:
               1
     1  Na   1.000000
     2  Cl   0.000000
 Sum of Mulliken charges =   1.00000
 Mulliken charges with hydrogens summed into heavy atoms:
               1
     1  Na   1.000000
     2  Cl   0.000000
         Mulliken charges condensed to fragments:
      1      1.000000
      2      0.000000
 Electronic spatial extent (au):  <R**2>=             19.5854
 Charge=              1.0000 electrons
 Dipole moment (field-independent basis, Debye):
    X=              0.0000    Y=              0.0000    Z=             -2.9162  Tot=              2.9162
 Quadrupole moment (field-independent basis, Debye-Ang):
   XX=             -2.8791   YY=             -2.8791   ZZ=             -1.1085
   XY=              0.0000   XZ=              0.0000   YZ=              0.0000
 Traceless Quadrupole moment (field-independent basis, Debye-Ang):
   XX=             -0.5902   YY=             -0.5902   ZZ=              1.1804
   XY=              0.0000   XZ=              0.0000   YZ=              0.0000
 Octapole moment (field-independent basis, Debye-Ang**2):
  XXX=              0.0000  YYY=              0.0000  ZZZ=              4.1691  XYY=              0.0000
  XXY=              0.0000  XXZ=              1.7480  XZZ=              0.0000  YZZ=              0.0000
  YYZ=              1.7480  XYZ=              0.0000
 Hexadecapole moment (field-independent basis, Debye-Ang**3):
 XXXX=             -0.8822 YYYY=             -0.8822 ZZZZ=             -6.5974 XXXY=              0.0000
 XXXZ=              0.0000 YYYX=              0.0000 YYYZ=              0.0000 ZZZX=              0.0000
 ZZZY=              0.0000 XXYY=             -0.2941 XXZZ=             -1.3554 YYZZ=             -1.3554
 XXYZ=              0.0000 YYXZ=              0.0000 ZZXY=              0.0000
 N-N= 0.000000000000D+00 E-N=-3.865322451826D+02  KE= 1.616504139877D+02
 Symmetry A1   KE= 1.380404200473D+02
 Symmetry A2   KE= 3.466306087382D-62
 Symmetry B1   KE= 1.180499697021D+01
 Symmetry B2   KE= 1.180499697021D+01
 Calling FoFJK, ICntrl=  10002127 FMM=F ISym2X=1 I1Cent= 0 IOpClX= 0 NMat=1 NMatS=1 NMatT=0.
 ***** Axes restored to original set *****
 Cartesian Forces:  Max     0.000000000 RMS     0.000000000
 CPIOFr:  IOpCl= 0 IRwI=-1 IRwCP=  731 ICalc=  3 LCPTot=       15519 Len1MO=       42364 IndFrg=      184975
 Counterpoise: doing calculation for fragment   2 using the basis set of the fragment.
 Basis read from rwf:  (5D, 7F)
 There are    26 symmetry adapted cartesian basis functions of A1  symmetry.
 There are     5 symmetry adapted cartesian basis functions of A2  symmetry.
 There are    14 symmetry adapted cartesian basis functions of B1  symmetry.
 There are    14 symmetry adapted cartesian basis functions of B2  symmetry.
 There are    21 symmetry adapted basis functions of A1  symmetry.
 There are     5 symmetry adapted basis functions of A2  symmetry.
 There are    12 symmetry adapted basis functions of B1  symmetry.
 There are    12 symmetry adapted basis functions of B2  symmetry.
    50 basis functions,   114 primitive gaussians,    59 cartesian basis functions
     9 alpha electrons        9 beta electrons
       nuclear repulsion energy         0.0000000000 Hartrees.
 NAtoms=    2 NActive=    1 NUniq=    1 SFac= 1.00D+00 NAtFMM=   60 NAOKFM=F Big=F
 Integral buffers will be    131072 words long.
 Raffenetti 1 integral format.
 Two-electron integral symmetry is turned on.
 One-electron integrals computed using PRISM.
 NBasis=    50 RedAO= T EigKep=  1.62D-02  NBF=    21     5    12    12
 NBsUse=    50 1.00D-06 EigRej= -1.00D+00 NBFU=    21     5    12    12
 ExpMin= 4.19D-02 ExpMax= 4.56D+05 ExpMxC= 1.44D+03 IAcc=3 IRadAn=         5 AccDes= 0.00D+00
 Harris functional with IExCor=  205 and IRadAn=       5 diagonalized for initial guess.
 HarFok:  IExCor=  205 AccDes= 0.00D+00 IRadAn=         5 IDoV= 1 UseB2=F ITyADJ=14
 ICtDFT=  3500011 ScaDFX=  1.000000  1.000000  1.000000  1.000000
 FoFCou: FMM=F IPFlag=           0 FMFlag=      100000 FMFlg1=           0
         NFxFlg=           0 DoJE=T BraDBF=F KetDBF=T FulRan=T
         wScrn=  0.000000 ICntrl=       500 IOpCl=  0 I1Cent=   200000004 NGrid=           0
         NMat0=    1 NMatS0=      1 NMatT0=    0 NMatD0=    1 NMtDS0=    0 NMtDT0=    0
 Petite list used in FoFCou.
 Initial guess orbital symmetries:
       Occupied  (SG) (SG) (SG) (PI) (PI) (SG) (PI) (PI) (SG)
       Virtual   (SG) (SG) (PI) (PI) (PI) (?A) (PI) (?A) (?A) (SG)
                 (PI) (PI) (?B) (PI) (PI) (?B) (?B) (SG) (DLTA)
                 (?C) (?C) (DLTA) (?C) (SG) (?C) (PI) (?D) (PI)
                 (?D) (?D) (SG) (PI) (PI) (DLTA) (?C) (?C) (DLTA)
                 (SG) (?C) (?C) (SG)
 The electronic state of the initial guess is 1-SG.
 Keep R1 ints in memory in symmetry-blocked form, NReq=4741647.
 Requested convergence on RMS density matrix=1.00D-08 within 128 cycles.
 Requested convergence on MAX density matrix=1.00D-06.
 Requested convergence on             energy=1.00D-06.
 No special actions if energy rises.
 SCF Done:  E(RHF) =  -459.573481467     A.U. after    8 cycles
            NFock=  8  Conv=0.24D-08     -V/T= 2.0000
 ExpMin= 4.19D-02 ExpMax= 4.56D+05 ExpMxC= 1.44D+03 IAcc=3 IRadAn=         5 AccDes= 0.00D+00
 HarFok:  IExCor=  205 AccDes= 0.00D+00 IRadAn=         5 IDoV=-2 UseB2=F ITyADJ=14
 ICtDFT= 12500011 ScaDFX=  1.000000  1.000000  1.000000  1.000000
 Range of M.O.s used for correlation:     6    50
 NBasis=    50 NAE=     9 NBE=     9 NFC=     5 NFV=     0
 NROrb=     45 NOA=     4 NOB=     4 NVA=    41 NVB=    41
 Fully direct method using O(ONN) memory.
 JobTyp=1 Pass  1:  I=   6 to   9 NPSUse=  8 ParTrn=T ParDer=T DoDerP=T.
 Spin components of T(2) and E(2):
     alpha-alpha T2 =       0.1093636179D-01 E2=     -0.2594226012D-01
     alpha-beta  T2 =       0.5910558619D-01 E2=     -0.1554259047D+00
     beta-beta   T2 =       0.1093636179D-01 E2=     -0.2594226012D-01
 ANorm=    0.1039701068D+01
 E2 =    -0.2073104249D+00 EUMP2 =    -0.45978079189185D+03
          IDoAtm=01
          Differentiating once with respect to electric field.
                with respect to dipole field.
          Differentiating once with respect to nuclear coordinates.
 Keep R1 ints in memory in symmetry-blocked form, NReq=4742170.
          There are     1 degrees of freedom in the 1st order CPHF.  IDoFFX=0 NUNeed=     1.
 LinEq1:  Iter=  0 NonCon=     1 RMS=3.20D-03 Max=3.10D-02 NDo=     1
 AX will form     1 AO Fock derivatives at one time.
 LinEq1:  Iter=  1 NonCon=     1 RMS=3.73D-04 Max=3.08D-03 NDo=     1
 LinEq1:  Iter=  2 NonCon=     1 RMS=1.11D-04 Max=1.00D-03 NDo=     1
 LinEq1:  Iter=  3 NonCon=     1 RMS=4.26D-06 Max=6.70D-05 NDo=     1
 LinEq1:  Iter=  4 NonCon=     1 RMS=3.87D-07 Max=2.69D-06 NDo=     1
 LinEq1:  Iter=  5 NonCon=     1 RMS=3.66D-08 Max=6.06D-07 NDo=     1
 LinEq1:  Iter=  6 NonCon=     1 RMS=9.78D-10 Max=1.38D-08 NDo=     1
 LinEq1:  Iter=  7 NonCon=     0 RMS=2.91D-11 Max=3.14D-10 NDo=     1
 Linear equations converged to 1.000D-10 1.000D-09 after     7 iterations.
 End of Minotr F.D. properties file   721 does not exist.
 End of Minotr F.D. properties file   722 does not exist.
 End of Minotr F.D. properties file   788 does not exist.

 **********************************************************************

            Population analysis using the SCF Density.

 **********************************************************************

 Orbital symmetries:
       Occupied  (SG) (SG) (PI) (SG) (PI) (SG) (SG) (PI) (PI)
       Virtual   (SG) (PI) (PI) (SG) (DLTA) (PI) (PI) (DLTA) (SG)
                 (SG) (PI) (PI) (SG) (?A) (?A) (?A) (PI) (PI) (?B)
                 (?C) (?B) (?C) (?B) (?C) (?B) (?D) (?D) (PI) (PI)
                 (?D) (PI) (SG) (PI) (?E) (?B) (?B) (?E) (?B) (?E)
                 (?B) (SG)
 The electronic state is 1-SG.
 Alpha  occ. eigenvalues -- -104.50595 -10.22974  -7.69577  -7.69577  -7.69577
 Alpha  occ. eigenvalues --   -0.73351  -0.15034  -0.15034  -0.15034
 Alpha virt. eigenvalues --    0.28901   0.28901   0.28901   0.33933   0.59538
 Alpha virt. eigenvalues --    0.59538   0.59538   0.59538   0.59538   0.89553
 Alpha virt. eigenvalues --    0.89553   0.89553   1.20012   1.22157   1.22157
 Alpha virt. eigenvalues --    1.22157   1.22157   1.22157   1.46767   1.46767
 Alpha virt. eigenvalues --    1.46767   1.46767   1.46767   1.46767   1.46767
 Alpha virt. eigenvalues --    2.82683   2.82683   2.82683   2.82683   2.82683
 Alpha virt. eigenvalues --    2.98393   2.98393   2.98393   3.36941   3.36941
 Alpha virt. eigenvalues --    3.36941   3.36941   3.36941   3.36941   3.36941
 Alpha virt. eigenvalues --    5.36395
          Condensed to atoms (all electrons):
               2
     2  Cl  18.000000
 Mulliken charges:
               1
     1  Na   0.000000
     2  Cl  -1.000000
 Sum of Mulliken charges =  -1.00000
 Mulliken charges with hydrogens summed into heavy atoms:
               1
     1  Na   0.000000
     2  Cl  -1.000000
         Mulliken charges condensed to fragments:
      1      0.000000
      2     -1.000000
 Electronic spatial extent (au):  <R**2>=             48.3541
 Charge=             -1.0000 electrons
 Dipole moment (field-independent basis, Debye):
    X=              0.0000    Y=              0.0000    Z=             -1.8870  Tot=              1.8870
 Quadrupole moment (field-independent basis, Debye-Ang):
   XX=            -17.2314   YY=            -17.2314   ZZ=            -17.9727
   XY=              0.0000   XZ=              0.0000   YZ=              0.0000
 Traceless Quadrupole moment (field-independent basis, Debye-Ang):
   XX=              0.2471   YY=              0.2471   ZZ=             -0.4942
   XY=              0.0000   XZ=              0.0000   YZ=              0.0000
 Octapole moment (field-independent basis, Debye-Ang**2):
  XXX=              0.0000  YYY=              0.0000  ZZZ=            -20.5997  XYY=              0.0000
  XXY=              0.0000  XXZ=             -6.7695  XZZ=              0.0000  YZZ=              0.0000
  YYZ=             -6.7695  XYZ=              0.0000
 Hexadecapole moment (field-independent basis, Debye-Ang**3):
 XXXX=            -29.3403 YYYY=            -29.3403 ZZZZ=            -45.4113 XXXY=              0.0000
 XXXZ=              0.0000 YYYX=              0.0000 YYYZ=              0.0000 ZZZX=              0.0000
 ZZZY=              0.0000 XXYY=             -9.7801 XXZZ=            -12.4395 YYZZ=            -12.4395
 XXYZ=              0.0000 YYXZ=              0.0000 ZZXY=              0.0000
 N-N= 0.000000000000D+00 E-N=-1.100704756606D+03  KE= 4.595728133403D+02
 Symmetry A1   KE= 3.690141912239D+02
 Symmetry A2   KE= 1.352155841886D-61
 Symmetry B1   KE= 4.527931105817D+01
 Symmetry B2   KE= 4.527931105817D+01
 Calling FoFJK, ICntrl=  10002127 FMM=F ISym2X=1 I1Cent= 0 IOpClX= 0 NMat=1 NMatS=1 NMatT=0.
 ***** Axes restored to original set *****
 Cartesian Forces:  Max     0.000000000 RMS     0.000000000
 CPIOFr:  IOpCl= 0 IRwI=-1 IRwCP=  731 ICalc=  4 LCPTot=       15519 Len1MO=       42364 IndFrg=      227339
 CPIOFr:  IOpCl= 0 IRwI=-2 IRwCP=  731 ICalc=  0 LCPTot=       15519 Len1MO=       42364 IndFrg=       57883
 Counterpoise corrected energy =    -619.640080893934
                   BSSE energy =       0.002736275834
              sum of fragments =    -621.456810682485
           complexation energy =    1138.30 kcal/mole (raw)
           complexation energy =    1140.02 kcal/mole (corrected)
 Rotating derivatives to standard orientation.
 ***** Axes restored to original set *****
 -------------------------------------------------------------------
 Center     Atomic             Integrated Forces (Hartrees/Bohr)
 Number     Number              X              Y              Z
 -------------------------------------------------------------------
      1       11          -0.000000000   -0.000000000   -3.631964996
      2       17          -0.000000000   -0.000000000    3.631964996
 -------------------------------------------------------------------
 Integrated Cartesian Forces:  Max     3.631964996 RMS     2.096915968

 GradGradGradGradGradGradGradGradGradGradGradGradGradGradGradGradGradGrad
 Berny optimization.
 FormGI is forming the generalized inverse of G from B-inverse, IUseBI=4.
 Internal  Forces:  Max     3.631964996 RMS     3.631964996
 Search for a local minimum.
 Step number   1 out of a maximum of   20 on scan point     1 out of    91
 All quantities printed in internal units (Hartrees-Bohrs-Radians)
 Mixed Optimization -- En-DIIS/RFO-DIIS
 Second derivative matrix not updated -- first step.
 The second derivative matrix:
                          R1
           R1          17.34000
 ITU=  0
     Eigenvalues --- 1000.00000
 RFO step:  Lambda= 0.00000000D+00 EMin= 1.00000000D+03
 Linear search not attempted -- first point.
 Iteration  1 RMS(Cart)=  0.00000000 RMS(Int)=  0.00000000
 Iteration  1 RMS(Cart)=  0.00000000 RMS(Int)=  0.00000000
 ClnCor:  largest displacement from symmetrization is 0.00D+00 for atom     0.
 Variable       Old X    -DE/DX   Delta X   Delta X   Delta X     New X
                                 (Linear)    (Quad)   (Total)
    R1        1.88973   3.63196   0.00000   0.00000   0.00000   1.88973
         Item               Value     Threshold  Converged?
 Maximum Force            0.000000     0.000450     YES
 RMS     Force            0.000000     0.000300     YES
 Maximum Displacement     0.000000     0.001800     YES
 RMS     Displacement     0.000000     0.001200     YES
 Predicted change in Energy=-0.000000D+00
 Optimization completed.
    -- Stationary point found.
                           ----------------------------
                           !   Optimized Parameters   !
                           ! (Angstroms and Degrees)  !
 --------------------------                            --------------------------
 ! Name  Definition              Value          Derivative Info.                !
 --------------------------------------------------------------------------------
 ! R1    R(1,2)                  1.0            -DE/DX =    3.632               !
 --------------------------------------------------------------------------------
 Iteration  1 RMS(Cart)=  0.13362382 RMS(Int)=  0.00000000
 Iteration  2 RMS(Cart)=  0.00000000 RMS(Int)=  0.00000000
 Iteration  1 RMS(Cart)=  0.00000000 RMS(Int)=  0.00000000
 GradGradGradGradGradGradGradGradGradGradGradGradGradGradGradGradGradGrad

                          Input orientation:                          
 ---------------------------------------------------------------------
 Center     Atomic      Atomic             Coordinates (Angstroms)
 Number     Number       Type             X           Y           Z
 ---------------------------------------------------------------------
      1         11           0        0.000000    0.000000   -0.050000
      2         17           0        0.000000    0.000000    1.050000
 ---------------------------------------------------------------------
 Stoichiometry    ClNa
 Framework group  C*V[C*(NaCl)]
 Deg. of freedom     1
 Full point group                 C*V     NOp   4
 Largest Abelian subgroup         C2V     NOp   4
 Largest concise Abelian subgroup C1      NOp   1
                         Standard orientation:                         
 ---------------------------------------------------------------------
 Center     Atomic      Atomic             Coordinates (Angstroms)
 Number     Number       Type             X           Y           Z
 ---------------------------------------------------------------------
      1         11           0        0.000000    0.000000   -0.667857
      2         17           0        0.000000    0.000000    0.432143
 ---------------------------------------------------------------------
 Rotational constants (GHZ):           0.0000000          30.1116032          30.1116032
 CPIOFr:  IOpCl= 0 IRwI=-2 IRwCP=20731 ICalc=  0 LCPTot=       15519 Len1MO=       42364 IndFrg=       57883
 CPIOFr:  IOpCl= 0 IRwI= 4 IRwCP=20731 ICalc=  0 LCPTot=       15519 Len1MO=       42364 IndFrg=       57883
 Counterpoise: doing full-system calculation.
 Basis read from rwf:  (5D, 7F)
 There are    52 symmetry adapted cartesian basis functions of A1  symmetry.
 There are    10 symmetry adapted cartesian basis functions of A2  symmetry.
 There are    28 symmetry adapted cartesian basis functions of B1  symmetry.
 There are    28 symmetry adapted cartesian basis functions of B2  symmetry.
 There are    42 symmetry adapted basis functions of A1  symmetry.
 There are    10 symmetry adapted basis functions of A2  symmetry.
 There are    24 symmetry adapted basis functions of B1  symmetry.
 There are    24 symmetry adapted basis functions of B2  symmetry.
   100 basis functions,   237 primitive gaussians,   118 cartesian basis functions
    14 alpha electrons       14 beta electrons
       nuclear repulsion energy        89.9601258564 Hartrees.
 NAtoms=    2 NActive=    2 NUniq=    2 SFac= 1.00D+00 NAtFMM=   60 NAOKFM=F Big=F
 Integral buffers will be    131072 words long.
 Raffenetti 1 integral format.
 Two-electron integral symmetry is turned on.
 One-electron integrals computed using PRISM.
 NBasis=   100 RedAO= T EigKep=  6.37D-05  NBF=    42    10    24    24
 NBsUse=   100 1.00D-06 EigRej= -1.00D+00 NBFU=    42    10    24    24
 Initial guess from the checkpoint file:  "nacl.chk"
 B after Tr=     0.000000    0.000000   -0.000000
         Rot=    1.000000    0.000000    0.000000    0.000000 Ang=   0.00 deg.
 Initial guess orbital symmetries:
       Occupied  (SG) (SG) (SG) (SG) (PI) (PI) (SG) (SG) (PI) (PI)
                 (SG) (PI) (PI) (SG)
       Virtual   (SG) (PI) (PI) (SG) (SG) (PI) (PI) (SG) (PI) (PI)
                 (SG) (DLTA) (DLTA) (SG) (PI) (PI) (PI) (PI) (SG)
                 (DLTA) (DLTA) (SG) (SG) (PI) (PI) (DLTA) (DLTA)
                 (PHI) (PHI) (PI) (PI) (SG) (PI) (PI) (DLTA) (DLTA)
                 (SG) (PI) (PI) (SG) (DLTA) (DLTA) (SG) (PI) (PI)
                 (DLTA) (DLTA) (SG) (PHI) (PHI) (PI) (PI) (SG)
                 (PI) (PI) (DLTA) (DLTA) (PI) (PI) (SG) (PHI) (PHI)
                 (SG) (DLTA) (DLTA) (PI) (PI) (SG) (SG) (PI) (PI)
                 (SG) (DLTA) (DLTA) (SG) (PI) (PI) (PHI) (PHI)
                 (DLTA) (DLTA) (PI) (PI) (SG) (SG) (SG)
 ExpMin= 7.42D-03 ExpMax= 4.56D+05 ExpMxC= 1.44D+03 IAcc=3 IRadAn=         5 AccDes= 0.00D+00
 Harris functional with IExCor=  205 and IRadAn=       5 diagonalized for initial guess.
 HarFok:  IExCor=  205 AccDes= 0.00D+00 IRadAn=         5 IDoV= 1 UseB2=F ITyADJ=14
 ICtDFT=  3500011 ScaDFX=  1.000000  1.000000  1.000000  1.000000
 FoFCou: FMM=F IPFlag=           0 FMFlag=      100000 FMFlg1=           0
         NFxFlg=           0 DoJE=T BraDBF=F KetDBF=T FulRan=T
         wScrn=  0.000000 ICntrl=       500 IOpCl=  0 I1Cent=   200000004 NGrid=           0
         NMat0=    1 NMatS0=      1 NMatT0=    0 NMatD0=    1 NMtDS0=    0 NMtDT0=    0
 Petite list used in FoFCou.
 Keep R1 ints in memory in symmetry-blocked form, NReq=16772748.
 Requested convergence on RMS density matrix=1.00D-08 within 128 cycles.
 Requested convergence on MAX density matrix=1.00D-06.
 Requested convergence on             energy=1.00D-06.
 No special actions if energy rises.
 SCF Done:  E(RHF) =  -620.002162501     A.U. after   13 cycles
            NFock= 13  Conv=0.52D-08     -V/T= 1.9922
 ExpMin= 7.42D-03 ExpMax= 4.56D+05 ExpMxC= 1.44D+03 IAcc=3 IRadAn=         5 AccDes= 0.00D+00
 HarFok:  IExCor=  205 AccDes= 0.00D+00 IRadAn=         5 IDoV=-2 UseB2=F ITyADJ=14
 ICtDFT= 12500011 ScaDFX=  1.000000  1.000000  1.000000  1.000000
 Range of M.O.s used for correlation:    11   100
 NBasis=   100 NAE=    14 NBE=    14 NFC=    10 NFV=     0
 NROrb=     90 NOA=     4 NOB=     4 NVA=    86 NVB=    86

 **** Warning!!: The largest alpha MO coefficient is  0.44205436D+02

 Fully direct method using O(ONN) memory.
 JobTyp=1 Pass  1:  I=  11 to  13 NPSUse=  7 ParTrn=T ParDer=T DoDerP=T.
 JobTyp=1 Pass  2:  I=  14 to  14 NPSUse=  7 ParTrn=T ParDer=T DoDerP=T.
 Spin components of T(2) and E(2):
     alpha-alpha T2 =       0.1017548989D-01 E2=     -0.2341764346D-01
     alpha-beta  T2 =       0.6650961791D-01 E2=     -0.1501189442D+00
     beta-beta   T2 =       0.1017548989D-01 E2=     -0.2341764346D-01
 ANorm=    0.1042526066D+01
 E2 =    -0.1969542311D+00 EUMP2 =    -0.62019911673188D+03
          IDoAtm=11
          Differentiating once with respect to electric field.
                with respect to dipole field.
          Differentiating once with respect to nuclear coordinates.
 Keep R1 ints in memory in symmetry-blocked form, NReq=16774309.
          There are     1 degrees of freedom in the 1st order CPHF.  IDoFFX=0 NUNeed=     1.
 LinEq1:  Iter=  0 NonCon=     1 RMS=1.88D-03 Max=2.44D-02 NDo=     1
 AX will form     1 AO Fock derivatives at one time.
 LinEq1:  Iter=  1 NonCon=     1 RMS=6.11D-04 Max=9.19D-03 NDo=     1
 LinEq1:  Iter=  2 NonCon=     1 RMS=1.50D-04 Max=2.14D-03 NDo=     1
 LinEq1:  Iter=  3 NonCon=     1 RMS=2.05D-05 Max=2.47D-04 NDo=     1
 LinEq1:  Iter=  4 NonCon=     1 RMS=3.58D-06 Max=3.94D-05 NDo=     1
 LinEq1:  Iter=  5 NonCon=     1 RMS=7.12D-07 Max=7.67D-06 NDo=     1
 LinEq1:  Iter=  6 NonCon=     1 RMS=2.16D-07 Max=2.47D-06 NDo=     1
 LinEq1:  Iter=  7 NonCon=     1 RMS=4.79D-08 Max=4.71D-07 NDo=     1
 LinEq1:  Iter=  8 NonCon=     1 RMS=7.74D-09 Max=1.20D-07 NDo=     1
 LinEq1:  Iter=  9 NonCon=     1 RMS=1.23D-09 Max=1.29D-08 NDo=     1
 LinEq1:  Iter= 10 NonCon=     1 RMS=2.06D-10 Max=2.20D-09 NDo=     1
 LinEq1:  Iter= 11 NonCon=     0 RMS=2.96D-11 Max=3.68D-10 NDo=     1
 Linear equations converged to 1.000D-10 1.000D-09 after    11 iterations.
 End of Minotr F.D. properties file   721 does not exist.
 End of Minotr F.D. properties file   722 does not exist.
 End of Minotr F.D. properties file   788 does not exist.
 Calling FoFJK, ICntrl=  10002127 FMM=F ISym2X=1 I1Cent= 0 IOpClX= 0 NMat=1 NMatS=1 NMatT=0.
 ***** Axes restored to original set *****
 Cartesian Forces:  Max     2.390896177 RMS     1.380384551
 CPIOFr:  IOpCl= 0 IRwI=-1 IRwCP=  731 ICalc= -1 LCPTot=       15519 Len1MO=       42364 IndFrg=       15519
 CPIOFr:  IOpCl= 0 IRwI=-1 IRwCP=  731 ICalc=  0 LCPTot=       15519 Len1MO=       42364 IndFrg=       57883
 CPIOFr:  IOpCl= 0 IRwI=-2 IRwCP=20731 ICalc=  1 LCPTot=       15519 Len1MO=       42364 IndFrg=      100247
 CPIOFr:  IOpCl= 0 IRwI= 4 IRwCP=20731 ICalc=  1 LCPTot=       15519 Len1MO=       42364 IndFrg=      100247
 Counterpoise: doing calculation for fragment   1 using the basis set of the full-system, NewBq=T
 Basis read from rwf:  (5D, 7F)
 There are    52 symmetry adapted cartesian basis functions of A1  symmetry.
 There are    10 symmetry adapted cartesian basis functions of A2  symmetry.
 There are    28 symmetry adapted cartesian basis functions of B1  symmetry.
 There are    28 symmetry adapted cartesian basis functions of B2  symmetry.
 There are    42 symmetry adapted basis functions of A1  symmetry.
 There are    10 symmetry adapted basis functions of A2  symmetry.
 There are    24 symmetry adapted basis functions of B1  symmetry.
 There are    24 symmetry adapted basis functions of B2  symmetry.
   100 basis functions,   237 primitive gaussians,   118 cartesian basis functions
     5 alpha electrons        5 beta electrons
       nuclear repulsion energy         0.0000000000 Hartrees.
 NAtoms=    2 NActive=    2 NUniq=    2 SFac= 1.00D+00 NAtFMM=   60 NAOKFM=F Big=F
 Integral buffers will be    131072 words long.
 Raffenetti 1 integral format.
 Two-electron integral symmetry is turned on.
 One-electron integrals computed using PRISM.
 NBasis=   100 RedAO= T EigKep=  6.37D-05  NBF=    42    10    24    24
 NBsUse=   100 1.00D-06 EigRej= -1.00D+00 NBFU=    42    10    24    24
 Initial guess from the checkpoint file:  "nacl.chk"
 B after Tr=     0.000000    0.000000   -0.000000
         Rot=    1.000000    0.000000    0.000000    0.000000 Ang=   0.00 deg.
 Initial guess orbital symmetries:
       Occupied  (SG) (SG) (PI) (PI) (SG)
       Virtual   (SG) (PI) (PI) (SG) (SG) (PI) (PI) (SG) (PI) (PI)
                 (SG) (DLTA) (DLTA) (SG) (PI) (PI) (SG) (SG) (PI)
                 (PI) (DLTA) (DLTA) (SG) (PI) (PI) (DLTA) (DLTA)
                 (PHI) (PHI) (SG) (PI) (PI) (SG) (PI) (PI) (SG)
                 (DLTA) (DLTA) (SG) (PI) (PI) (SG) (DLTA) (DLTA)
                 (PI) (PI) (SG) (PHI) (PHI) (DLTA) (DLTA) (PI)
                 (PI) (SG) (PI) (PI) (SG) (PHI) (PHI) (PI) (PI)
                 (DLTA) (DLTA) (SG) (PI) (PI) (SG) (DLTA) (DLTA)
                 (PI) (PI) (SG) (SG) (SG) (SG) (PI) (PI) (PHI)
                 (PHI) (DLTA) (DLTA) (PI) (PI) (SG) (PI) (PI) (DLTA)
                 (DLTA) (SG) (SG) (SG) (PI) (PI) (SG) (SG)
 ExpMin= 7.42D-03 ExpMax= 4.56D+05 ExpMxC= 1.44D+03 IAcc=3 IRadAn=         5 AccDes= 0.00D+00
 Harris functional with IExCor=  205 and IRadAn=       5 diagonalized for initial guess.
 HarFok:  IExCor=  205 AccDes= 0.00D+00 IRadAn=         5 IDoV= 1 UseB2=F ITyADJ=14
 ICtDFT=  3500011 ScaDFX=  1.000000  1.000000  1.000000  1.000000
 FoFCou: FMM=F IPFlag=           0 FMFlag=      100000 FMFlg1=           0
         NFxFlg=           0 DoJE=T BraDBF=F KetDBF=T FulRan=T
         wScrn=  0.000000 ICntrl=       500 IOpCl=  0 I1Cent=   200000004 NGrid=           0
         NMat0=    1 NMatS0=      1 NMatT0=    0 NMatD0=    1 NMtDS0=    0 NMtDT0=    0
 Petite list used in FoFCou.
 Keep R1 ints in memory in symmetry-blocked form, NReq=16772748.
 Requested convergence on RMS density matrix=1.00D-08 within 128 cycles.
 Requested convergence on MAX density matrix=1.00D-06.
 Requested convergence on             energy=1.00D-06.
 No special actions if energy rises.
 SCF Done:  E(RHF) =  -161.676078872     A.U. after    7 cycles
            NFock=  7  Conv=0.11D-08     -V/T= 2.0000
 Range of M.O.s used for correlation:     6   100
 NBasis=   100 NAE=     5 NBE=     5 NFC=     5 NFV=     0
 NROrb=     95 NOA=     0 NOB=     0 NVA=    95 NVB=    95
 *** There is no correlation energy for this system ***

 **** Warning!!: The largest alpha MO coefficient is  0.40032226D+02

 Fully direct method using O(ONN) memory.
 No occupied orbitals for this spin space.
 Spin components of T(2) and E(2):
     alpha-alpha T2 =       0.0000000000D+00 E2=      0.0000000000D+00
     alpha-beta  T2 =       0.0000000000D+00 E2=      0.0000000000D+00
     beta-beta   T2 =       0.0000000000D+00 E2=      0.0000000000D+00
 ANorm=    0.1000000000D+01
 E2 =     0.0000000000D+00 EUMP2 =    -0.16167607887183D+03
          IDoAtm=11
          Differentiating once with respect to electric field.
                with respect to dipole field.
          Differentiating once with respect to nuclear coordinates.
 Keep R1 ints in memory in symmetry-blocked form, NReq=16774314.
          There are     1 degrees of freedom in the 1st order CPHF.  IDoFFX=0 NUNeed=     1.
 LinEq1:  Iter=  0 NonCon=     0 RMS=0.00D+00 Max=0.00D+00 NDo=     0
 End of Minotr F.D. properties file   721 does not exist.
 End of Minotr F.D. properties file   722 does not exist.
 End of Minotr F.D. properties file   788 does not exist.
 Calling FoFJK, ICntrl=  10002127 FMM=F ISym2X=1 I1Cent= 0 IOpClX= 0 NMat=1 NMatS=1 NMatT=0.
 ***** Axes restored to original set *****
 Cartesian Forces:  Max     0.000028676 RMS     0.000016556
 CPIOFr:  IOpCl= 0 IRwI=-1 IRwCP=  731 ICalc=  1 LCPTot=       15519 Len1MO=       42364 IndFrg=      100247
 CPIOFr:  IOpCl= 0 IRwI=-2 IRwCP=20731 ICalc=  2 LCPTot=       15519 Len1MO=       42364 IndFrg=      142611
 CPIOFr:  IOpCl= 0 IRwI= 4 IRwCP=20731 ICalc=  2 LCPTot=       15519 Len1MO=       42364 IndFrg=      142611
 Counterpoise: doing calculation for fragment   2 using the basis set of the full-system, NewBq=T
 Basis read from rwf:  (5D, 7F)
 There are    52 symmetry adapted cartesian basis functions of A1  symmetry.
 There are    10 symmetry adapted cartesian basis functions of A2  symmetry.
 There are    28 symmetry adapted cartesian basis functions of B1  symmetry.
 There are    28 symmetry adapted cartesian basis functions of B2  symmetry.
 There are    42 symmetry adapted basis functions of A1  symmetry.
 There are    10 symmetry adapted basis functions of A2  symmetry.
 There are    24 symmetry adapted basis functions of B1  symmetry.
 There are    24 symmetry adapted basis functions of B2  symmetry.
   100 basis functions,   237 primitive gaussians,   118 cartesian basis functions
     9 alpha electrons        9 beta electrons
       nuclear repulsion energy         0.0000000000 Hartrees.
 NAtoms=    2 NActive=    2 NUniq=    2 SFac= 1.00D+00 NAtFMM=   60 NAOKFM=F Big=F
 Integral buffers will be    131072 words long.
 Raffenetti 1 integral format.
 Two-electron integral symmetry is turned on.
 One-electron integrals computed using PRISM.
 NBasis=   100 RedAO= T EigKep=  6.37D-05  NBF=    42    10    24    24
 NBsUse=   100 1.00D-06 EigRej= -1.00D+00 NBFU=    42    10    24    24
 Initial guess from the checkpoint file:  "nacl.chk"
 B after Tr=     0.000000    0.000000   -0.000000
         Rot=    1.000000    0.000000    0.000000    0.000000 Ang=   0.00 deg.
 Initial guess orbital symmetries:
       Occupied  (SG) (SG) (PI) (PI) (SG) (SG) (PI) (PI) (SG)
       Virtual   (SG) (PI) (PI) (SG) (SG) (PI) (PI) (SG) (PI) (PI)
                 (DLTA) (DLTA) (SG) (SG) (PI) (PI) (SG) (PI) (PI)
                 (DLTA) (DLTA) (SG) (PI) (PI) (DLTA) (DLTA) (SG)
                 (PHI) (PHI) (SG) (PI) (PI) (SG) (PI) (PI) (SG)
                 (DLTA) (DLTA) (PI) (PI) (DLTA) (DLTA) (SG) (PI)
                 (PI) (SG) (DLTA) (DLTA) (PHI) (PHI) (PI) (PI)
                 (SG) (SG) (PI) (PI) (DLTA) (DLTA) (PI) (PI) (SG)
                 (PHI) (PHI) (PI) (PI) (DLTA) (DLTA) (SG) (SG)
                 (SG) (PI) (PI) (DLTA) (DLTA) (SG) (PI) (PI) (SG)
                 (PHI) (PHI) (PI) (PI) (DLTA) (DLTA) (SG) (SG)
                 (SG) (PI) (PI) (SG) (SG)
 ExpMin= 7.42D-03 ExpMax= 4.56D+05 ExpMxC= 1.44D+03 IAcc=3 IRadAn=         5 AccDes= 0.00D+00
 Harris functional with IExCor=  205 and IRadAn=       5 diagonalized for initial guess.
 HarFok:  IExCor=  205 AccDes= 0.00D+00 IRadAn=         5 IDoV= 1 UseB2=F ITyADJ=14
 ICtDFT=  3500011 ScaDFX=  1.000000  1.000000  1.000000  1.000000
 FoFCou: FMM=F IPFlag=           0 FMFlag=      100000 FMFlg1=           0
         NFxFlg=           0 DoJE=T BraDBF=F KetDBF=T FulRan=T
         wScrn=  0.000000 ICntrl=       500 IOpCl=  0 I1Cent=   200000004 NGrid=           0
         NMat0=    1 NMatS0=      1 NMatT0=    0 NMatD0=    1 NMtDS0=    0 NMtDT0=    0
 Petite list used in FoFCou.
 Keep R1 ints in memory in symmetry-blocked form, NReq=16772748.
 Requested convergence on RMS density matrix=1.00D-08 within 128 cycles.
 Requested convergence on MAX density matrix=1.00D-06.
 Requested convergence on             energy=1.00D-06.
 No special actions if energy rises.
 SCF Done:  E(RHF) =  -459.573527866     A.U. after    8 cycles
            NFock=  8  Conv=0.93D-08     -V/T= 2.0000
 ExpMin= 7.42D-03 ExpMax= 4.56D+05 ExpMxC= 1.44D+03 IAcc=3 IRadAn=         5 AccDes= 0.00D+00
 HarFok:  IExCor=  205 AccDes= 0.00D+00 IRadAn=         5 IDoV=-2 UseB2=F ITyADJ=14
 ICtDFT= 12500011 ScaDFX=  1.000000  1.000000  1.000000  1.000000
 Range of M.O.s used for correlation:     6   100
 NBasis=   100 NAE=     9 NBE=     9 NFC=     5 NFV=     0
 NROrb=     95 NOA=     4 NOB=     4 NVA=    91 NVB=    91

 **** Warning!!: The largest alpha MO coefficient is  0.45709869D+02

 Fully direct method using O(ONN) memory.
 JobTyp=1 Pass  1:  I=   6 to   8 NPSUse=  7 ParTrn=T ParDer=T DoDerP=T.
 JobTyp=1 Pass  2:  I=   9 to   9 NPSUse=  7 ParTrn=T ParDer=T DoDerP=T.
 Spin components of T(2) and E(2):
     alpha-alpha T2 =       0.1097722295D-01 E2=     -0.2603419813D-01
     alpha-beta  T2 =       0.5963639364D-01 E2=     -0.1575791331D+00
     beta-beta   T2 =       0.1097722295D-01 E2=     -0.2603419813D-01
 ANorm=    0.1039995596D+01
 E2 =    -0.2096475293D+00 EUMP2 =    -0.45978317539546D+03
          IDoAtm=11
          Differentiating once with respect to electric field.
                with respect to dipole field.
          Differentiating once with respect to nuclear coordinates.
 Keep R1 ints in memory in symmetry-blocked form, NReq=16774314.
          There are     1 degrees of freedom in the 1st order CPHF.  IDoFFX=0 NUNeed=     1.
 LinEq1:  Iter=  0 NonCon=     1 RMS=2.25D-03 Max=2.14D-02 NDo=     1
 AX will form     1 AO Fock derivatives at one time.
 LinEq1:  Iter=  1 NonCon=     1 RMS=2.46D-04 Max=2.52D-03 NDo=     1
 LinEq1:  Iter=  2 NonCon=     1 RMS=9.51D-05 Max=9.04D-04 NDo=     1
 LinEq1:  Iter=  3 NonCon=     1 RMS=1.03D-05 Max=8.11D-05 NDo=     1
 LinEq1:  Iter=  4 NonCon=     1 RMS=1.23D-06 Max=1.09D-05 NDo=     1
 LinEq1:  Iter=  5 NonCon=     1 RMS=3.00D-07 Max=3.29D-06 NDo=     1
 LinEq1:  Iter=  6 NonCon=     1 RMS=6.06D-08 Max=7.81D-07 NDo=     1
 LinEq1:  Iter=  7 NonCon=     1 RMS=9.64D-09 Max=7.58D-08 NDo=     1
 LinEq1:  Iter=  8 NonCon=     1 RMS=8.86D-10 Max=8.21D-09 NDo=     1
 LinEq1:  Iter=  9 NonCon=     0 RMS=6.58D-11 Max=6.68D-10 NDo=     1
 Linear equations converged to 1.000D-10 1.000D-09 after     9 iterations.
 End of Minotr F.D. properties file   721 does not exist.
 End of Minotr F.D. properties file   722 does not exist.
 End of Minotr F.D. properties file   788 does not exist.
 Calling FoFJK, ICntrl=  10002127 FMM=F ISym2X=1 I1Cent= 0 IOpClX= 0 NMat=1 NMatS=1 NMatT=0.
 ***** Axes restored to original set *****
 Cartesian Forces:  Max     0.001480715 RMS     0.000854891
 CPIOFr:  IOpCl= 0 IRwI=-1 IRwCP=  731 ICalc=  2 LCPTot=       15519 Len1MO=       42364 IndFrg=      142611
 CPIOFr:  IOpCl= 0 IRwI=-2 IRwCP=20731 ICalc=  3 LCPTot=       15519 Len1MO=       42364 IndFrg=      184975
 CPIOFr:  IOpCl= 0 IRwI= 4 IRwCP=20731 ICalc=  3 LCPTot=       15519 Len1MO=       42364 IndFrg=      184975
 Counterpoise: doing calculation for fragment   1 using the basis set of the fragment.
 Basis read from rwf:  (5D, 7F)
 There are    26 symmetry adapted cartesian basis functions of A1  symmetry.
 There are     5 symmetry adapted cartesian basis functions of A2  symmetry.
 There are    14 symmetry adapted cartesian basis functions of B1  symmetry.
 There are    14 symmetry adapted cartesian basis functions of B2  symmetry.
 There are    21 symmetry adapted basis functions of A1  symmetry.
 There are     5 symmetry adapted basis functions of A2  symmetry.
 There are    12 symmetry adapted basis functions of B1  symmetry.
 There are    12 symmetry adapted basis functions of B2  symmetry.
    50 basis functions,   123 primitive gaussians,    59 cartesian basis functions
     5 alpha electrons        5 beta electrons
       nuclear repulsion energy         0.0000000000 Hartrees.
 NAtoms=    2 NActive=    1 NUniq=    1 SFac= 1.00D+00 NAtFMM=   60 NAOKFM=F Big=F
 Integral buffers will be    131072 words long.
 Raffenetti 1 integral format.
 Two-electron integral symmetry is turned on.
 One-electron integrals computed using PRISM.
 NBasis=    50 RedAO= T EigKep=  3.09D-02  NBF=    21     5    12    12
 NBsUse=    50 1.00D-06 EigRej= -1.00D+00 NBFU=    21     5    12    12
 Initial guess from the checkpoint file:  "nacl.chk"
 B after Tr=     0.000000    0.000000   -0.045074
         Rot=    1.000000    0.000000    0.000000    0.000000 Ang=   0.00 deg.
 Initial guess orbital symmetries:
       Occupied  (SG) (SG) (PI) (SG) (PI)
[...]
 Skip diagonalization as Alpha Fock matrix is already diagonal.
 SCF Done:  E(RHF) =  -161.676018791     A.U. after    1 cycles
            NFock=  1  Conv=0.00D+00     -V/T= 2.0002
 Range of M.O.s used for correlation:     6    50
 NBasis=    50 NAE=     5 NBE=     5 NFC=     5 NFV=     0
 NROrb=     45 NOA=     0 NOB=     0 NVA=    45 NVB=    45
 *** There is no correlation energy for this system ***
 Fully direct method using O(ONN) memory.
 No occupied orbitals for this spin space.
 Spin components of T(2) and E(2):
     alpha-alpha T2 =       0.0000000000D+00 E2=      0.0000000000D+00
     alpha-beta  T2 =       0.0000000000D+00 E2=      0.0000000000D+00
     beta-beta   T2 =       0.0000000000D+00 E2=      0.0000000000D+00
 ANorm=    0.1000000000D+01
 E2 =     0.0000000000D+00 EUMP2 =    -0.16167601879064D+03
          IDoAtm=10
          Differentiating once with respect to electric field.
                with respect to dipole field.
          Differentiating once with respect to nuclear coordinates.
 Keep R1 ints in memory in symmetry-blocked form, NReq=4750436.
          There are     1 degrees of freedom in the 1st order CPHF.  IDoFFX=0 NUNeed=     1.
 LinEq1:  Iter=  0 NonCon=     0 RMS=0.00D+00 Max=0.00D+00 NDo=     0
 End of Minotr F.D. properties file   721 does not exist.
 End of Minotr F.D. properties file   722 does not exist.
 End of Minotr F.D. properties file   788 does not exist.
 Calling FoFJK, ICntrl=  10002127 FMM=F ISym2X=1 I1Cent= 0 IOpClX= 0 NMat=1 NMatS=1 NMatT=0.
 ***** Axes restored to original set *****
 Cartesian Forces:  Max     0.000000000 RMS     0.000000000
 CPIOFr:  IOpCl= 0 IRwI=-1 IRwCP=  731 ICalc=  3 LCPTot=       15519 Len1MO=       42364 IndFrg=      184975
 CPIOFr:  IOpCl= 0 IRwI=-2 IRwCP=20731 ICalc=  4 LCPTot=       15519 Len1MO=       42364 IndFrg=      227339
 CPIOFr:  IOpCl= 0 IRwI= 4 IRwCP=20731 ICalc=  4 LCPTot=       15519 Len1MO=       42364 IndFrg=      227339
 Counterpoise: doing calculation for fragment   2 using the basis set of the fragment.
 Basis read from rwf:  (5D, 7F)
 There are    26 symmetry adapted cartesian basis functions of A1  symmetry.
 There are     5 symmetry adapted cartesian basis functions of A2  symmetry.
 There are    14 symmetry adapted cartesian basis functions of B1  symmetry.
 There are    14 symmetry adapted cartesian basis functions of B2  symmetry.
 There are    21 symmetry adapted basis functions of A1  symmetry.
 There are     5 symmetry adapted basis functions of A2  symmetry.
 There are    12 symmetry adapted basis functions of B1  symmetry.
 There are    12 symmetry adapted basis functions of B2  symmetry.
    50 basis functions,   114 primitive gaussians,    59 cartesian basis functions
     9 alpha electrons        9 beta electrons
       nuclear repulsion energy         0.0000000000 Hartrees.
 NAtoms=    2 NActive=    1 NUniq=    1 SFac= 1.00D+00 NAtFMM=   60 NAOKFM=F Big=F
 Integral buffers will be    131072 words long.
 Raffenetti 1 integral format.
 Two-electron integral symmetry is turned on.
 One-electron integrals computed using PRISM.
 NBasis=    50 RedAO= T EigKep=  1.62D-02  NBF=    21     5    12    12
 NBsUse=    50 1.00D-06 EigRej= -1.00D+00 NBFU=    21     5    12    12
 Initial guess from the checkpoint file:  "nacl.chk"
 B after Tr=     0.000000    0.000000    0.045074
         Rot=    1.000000    0.000000    0.000000    0.000000 Ang=   0.00 deg.
 Initial guess orbital symmetries:
       Occupied  (SG) (SG) (PI) (PI) (SG) (SG) (PI) (PI) (SG)
       Virtual   (PI) (PI) (SG) (SG) (PI) (?A) (PI) (?A) (?A) (PI)
                 (PI) (SG) (SG) (?B) (?B) (?B) (PI) (PI) (?C) (?D)
                 (?D) (?C) (?C) (?D) (?C) (PI) (?E) (?E) (?E) (PI)
                 (SG) (PI) (PI) (?F) (?C) (?C) (?F) (?C) (?C) (?F)
                 (SG)
 ExpMin= 4.19D-02 ExpMax= 4.56D+05 ExpMxC= 1.44D+03 IAcc=3 IRadAn=         5 AccDes= 0.00D+00
 Harris functional with IExCor=  205 and IRadAn=       5 diagonalized for initial guess.
 HarFok:  IExCor=  205 AccDes= 0.00D+00 IRadAn=         5 IDoV= 1 UseB2=F ITyADJ=14
 ICtDFT=  3500011 ScaDFX=  1.000000  1.000000  1.000000  1.000000
 FoFCou: FMM=F IPFlag=           0 FMFlag=      100000 FMFlg1=           0
         NFxFlg=           0 DoJE=T BraDBF=F KetDBF=T FulRan=T
         wScrn=  0.000000 ICntrl=       500 IOpCl=  0 I1Cent=   200000004 NGrid=           0
         NMat0=    1 NMatS0=      1 NMatT0=    0 NMatD0=    1 NMtDS0=    0 NMtDT0=    0
 Petite list used in FoFCou.
 Keep R1 ints in memory in symmetry-blocked form, NReq=4741647.
 Requested convergence on RMS density matrix=1.00D-08 within 128 cycles.
 Requested convergence on MAX density matrix=1.00D-06.
 Requested convergence on             energy=1.00D-06.
 No special actions if energy rises.
 Skip diagonalization as Alpha Fock matrix is already diagonal.
 SCF Done:  E(RHF) =  -459.573481467     A.U. after    1 cycles
            NFock=  1  Conv=0.00D+00     -V/T= 2.0000
 ExpMin= 4.19D-02 ExpMax= 4.56D+05 ExpMxC= 1.44D+03 IAcc=3 IRadAn=         5 AccDes= 0.00D+00
 HarFok:  IExCor=  205 AccDes= 0.00D+00 IRadAn=         5 IDoV=-2 UseB2=F ITyADJ=14
 ICtDFT= 12500011 ScaDFX=  1.000000  1.000000  1.000000  1.000000
 Range of M.O.s used for correlation:     6    50
 NBasis=    50 NAE=     9 NBE=     9 NFC=     5 NFV=     0
 NROrb=     45 NOA=     4 NOB=     4 NVA=    41 NVB=    41
 Fully direct method using O(ONN) memory.
 JobTyp=1 Pass  1:  I=   6 to   9 NPSUse=  8 ParTrn=T ParDer=T DoDerP=T.
 Spin components of T(2) and E(2):
     alpha-alpha T2 =       0.1093636176D-01 E2=     -0.2594226008D-01
     alpha-beta  T2 =       0.5910558604D-01 E2=     -0.1554259045D+00
     beta-beta   T2 =       0.1093636176D-01 E2=     -0.2594226008D-01
 ANorm=    0.1039701067D+01
 E2 =    -0.2073104247D+00 EUMP2 =    -0.45978079189163D+03
          IDoAtm=01
          Differentiating once with respect to electric field.
                with respect to dipole field.
          Differentiating once with respect to nuclear coordinates.
 Keep R1 ints in memory in symmetry-blocked form, NReq=4742170.
          There are     1 degrees of freedom in the 1st order CPHF.  IDoFFX=0 NUNeed=     1.
 LinEq1:  Iter=  0 NonCon=     1 RMS=3.20D-03 Max=3.10D-02 NDo=     1
 AX will form     1 AO Fock derivatives at one time.
 LinEq1:  Iter=  1 NonCon=     1 RMS=3.73D-04 Max=3.08D-03 NDo=     1
 LinEq1:  Iter=  2 NonCon=     1 RMS=1.11D-04 Max=1.00D-03 NDo=     1
 LinEq1:  Iter=  3 NonCon=     1 RMS=4.26D-06 Max=6.70D-05 NDo=     1
 LinEq1:  Iter=  4 NonCon=     1 RMS=3.87D-07 Max=2.69D-06 NDo=     1
 LinEq1:  Iter=  5 NonCon=     1 RMS=3.66D-08 Max=6.06D-07 NDo=     1
 LinEq1:  Iter=  6 NonCon=     1 RMS=9.78D-10 Max=1.38D-08 NDo=     1
 LinEq1:  Iter=  7 NonCon=     0 RMS=2.91D-11 Max=3.14D-10 NDo=     1
 Linear equations converged to 1.000D-10 1.000D-09 after     7 iterations.
 End of Minotr F.D. properties file   721 does not exist.
 End of Minotr F.D. properties file   722 does not exist.
 End of Minotr F.D. properties file   788 does not exist.
 Calling FoFJK, ICntrl=  10002127 FMM=F ISym2X=1 I1Cent= 0 IOpClX= 0 NMat=1 NMatS=1 NMatT=0.
 ***** Axes restored to original set *****
 Cartesian Forces:  Max     0.000000000 RMS     0.000000000
 CPIOFr:  IOpCl= 0 IRwI=-1 IRwCP=  731 ICalc=  4 LCPTot=       15519 Len1MO=       42364 IndFrg=      227339
 CPIOFr:  IOpCl= 0 IRwI=-2 IRwCP=  731 ICalc=  0 LCPTot=       15519 Len1MO=       42364 IndFrg=       57883
 Counterpoise corrected energy =    -621.509851018898
                   BSSE energy =       0.000004332782
              sum of fragments =    -621.456810682269
           complexation energy =     -33.29 kcal/mole (raw)
           complexation energy =     -33.28 kcal/mole (corrected)
 Rotating derivatives to standard orientation.
 ***** Axes restored to original set *****
 -------------------------------------------------------------------
 Center     Atomic             Integrated Forces (Hartrees/Bohr)
 Number     Number              X              Y              Z
 -------------------------------------------------------------------
      1       11          -0.000000000   -0.000000000    0.002828903
      2       17          -0.000000000   -0.000000000   -0.002828903
 -------------------------------------------------------------------
 Integrated Cartesian Forces:  Max     0.002828903 RMS     0.001633268

 GradGradGradGradGradGradGradGradGradGradGradGradGradGradGradGradGradGrad
 Berny optimization.
 Internal  Forces:  Max     0.002828903 RMS     0.002828903
 Search for a local minimum.
 Step number   1 out of a maximum of   20 on scan point    91 out of    91
 All quantities printed in internal units (Hartrees-Bohrs-Radians)
 Mixed Optimization -- RFO/linear search
 Second derivative matrix not updated -- first step.
 The second derivative matrix:
                          R1
           R1          17.34000
 ITU=  0
     Eigenvalues --- 1000.00000
 RFO step:  Lambda= 0.00000000D+00 EMin= 1.00000000D+03
 Linear search not attempted -- first point.
 Iteration  1 RMS(Cart)=  0.00000000 RMS(Int)=  0.00000000
 Iteration  1 RMS(Cart)=  0.00000000 RMS(Int)=  0.00000000
 ClnCor:  largest displacement from symmetrization is 0.00D+00 for atom     0.
 Variable       Old X    -DE/DX   Delta X   Delta X   Delta X     New X
                                 (Linear)    (Quad)   (Total)
    R1       18.89726  -0.00283   0.00000   0.00000   0.00000  18.89726
         Item               Value     Threshold  Converged?
 Maximum Force            0.000000     0.000450     YES
 RMS     Force            0.000000     0.000300     YES
 Maximum Displacement     0.000000     0.001800     YES
 RMS     Displacement     0.000000     0.001200     YES
 Predicted change in Energy=-0.000000D+00
 Optimization completed.
    -- Stationary point found.
                           ----------------------------
                           !   Optimized Parameters   !
                           ! (Angstroms and Degrees)  !
 --------------------------                            --------------------------
 ! Name  Definition              Value          Derivative Info.                !
 --------------------------------------------------------------------------------
 ! R1    R(1,2)                 10.0            -DE/DX =   -0.0028              !
 --------------------------------------------------------------------------------
 Summary of Optimized Potential Surface Scan (add -621.0 to energies):
                           1         2         3         4         5
     Eigenvalues --     1.35992   0.80333   0.41873   0.12749  -0.10039
           R1           1.00000   1.10000   1.20000   1.30000   1.40000
                           6         7         8         9        10
     Eigenvalues --    -0.27438  -0.40219  -0.49306  -0.55598  -0.59845
           R1           1.50000   1.60000   1.70000   1.80000   1.90000
                          11        12        13        14        15
     Eigenvalues --    -0.62628  -0.64376  -0.65399  -0.65916  -0.66084
           R1           2.00000   2.10000   2.20000   2.30000   2.40000
                          16        17        18        19        20
     Eigenvalues --    -0.66012  -0.65778  -0.65437  -0.65024  -0.64569
           R1           2.50000   2.60000   2.70000   2.80000   2.90000
                          21        22        23        24        25
     Eigenvalues --    -0.64089  -0.63598  -0.63106  -0.62619  -0.62142
           R1           3.00000   3.10000   3.20000   3.30000   3.40000
                          26        27        28        29        30
     Eigenvalues --    -0.61678  -0.61229  -0.60796  -0.60380  -0.59981
           R1           3.50000   3.60000   3.70000   3.80000   3.90000
                          31        32        33        34        35
     Eigenvalues --    -0.59599  -0.59233  -0.58883  -0.58549  -0.58230
           R1           4.00000   4.10000   4.20000   4.30000   4.40000
                          36        37        38        39        40
     Eigenvalues --    -0.57925  -0.57634  -0.57355  -0.57089  -0.56835
           R1           4.50000   4.60000   4.70000   4.80000   4.90000
                          41        42        43        44        45
     Eigenvalues --    -0.56591  -0.56358  -0.56135  -0.55921  -0.55716
           R1           5.00000   5.10000   5.20000   5.30000   5.40000
                          46        47        48        49        50
     Eigenvalues --    -0.55519  -0.55330  -0.55148  -0.54974  -0.54806
           R1           5.50000   5.60000   5.70000   5.80000   5.90000
                          51        52        53        54        55
     Eigenvalues --    -0.54644  -0.54488  -0.54338  -0.54193  -0.54053
           R1           6.00000   6.10000   6.20000   6.30000   6.40000
                          56        57        58        59        60
     Eigenvalues --    -0.53918  -0.53787  -0.53661  -0.53539  -0.53421
           R1           6.50000   6.60000   6.70000   6.80000   6.90000
                          61        62        63        64        65
     Eigenvalues --    -0.53306  -0.53196  -0.53088  -0.52983  -0.52882
           R1           7.00000   7.10000   7.20000   7.30000   7.40000
                          66        67        68        69        70
     Eigenvalues --    -0.52784  -0.52688  -0.52595  -0.52504  -0.52416
           R1           7.50000   7.60000   7.70000   7.80000   7.90000
                          71        72        73        74        75
     Eigenvalues --    -0.52330  -0.52246  -0.52165  -0.52085  -0.52008
           R1           8.00000   8.10000   8.20000   8.30000   8.40000
                          76        77        78        79        80
     Eigenvalues --    -0.51932  -0.51859  -0.51787  -0.51716  -0.51648
           R1           8.50000   8.60000   8.70000   8.80000   8.90000
                          81        82        83        84        85
     Eigenvalues --    -0.51581  -0.51515  -0.51451  -0.51388  -0.51327
           R1           9.00000   9.10000   9.20000   9.30000   9.40000
                          86        87        88        89        90
     Eigenvalues --    -0.51267  -0.51208  -0.51151  -0.51094  -0.51039
           R1           9.50000   9.60000   9.70000   9.80000   9.90000
                          91
     Eigenvalues --    -0.50985
           R1          10.00000
 GradGradGradGradGradGradGradGradGradGradGradGradGradGradGradGradGradGrad

                          Input orientation:                          
 ---------------------------------------------------------------------
 Center     Atomic      Atomic             Coordinates (Angstroms)
 Number     Number       Type             X           Y           Z
 ---------------------------------------------------------------------
      1         11           0        0.000000    0.000000   -4.500000
      2         17           0        0.000000    0.000000    5.500000
 ---------------------------------------------------------------------
 Stoichiometry    ClNa
 Framework group  C*V[C*(NaCl)]
 Deg. of freedom     1
 Full point group                 C*V     NOp   4
 Largest Abelian subgroup         C2V     NOp   4
 Largest concise Abelian subgroup C1      NOp   1
                         Standard orientation:                         
 ---------------------------------------------------------------------
 Center     Atomic      Atomic             Coordinates (Angstroms)
 Number     Number       Type             X           Y           Z
 ---------------------------------------------------------------------
      1         11           0        0.000000    0.000000   -6.071429
      2         17           0        0.000000    0.000000    3.928571
 ---------------------------------------------------------------------
 Rotational constants (GHZ):           0.0000000           0.3643504           0.3643504
 Unable to Open any file for archive entry.
 1\1\GINC-GRA1097\Scan\RMP2-FC\Aug-CC-pVTZ\Cl1Na1\CROWLEY\25-Jan-2022\0
 \\#MP2/aug-cc-pvtz opt=modredundant counterpoise=2\\Title Card Require
 d\\0,1\Na,0.,0.,-4.5\Cl,0.,0.,5.5\\Version=ES64L-G16RevC.01\HF=-459.57
 34815,-459.5734815,-459.5734815,-459.5734815,-459.5734815,-459.5734815
 ,-459.5734815,-459.5734815,-459.5734815,-459.5734815,-459.5734815,-459
 .5734815,-459.5734815,-459.5734815,-459.5734815,-459.5734815,-459.5734
 815,-459.5734815,-459.5734815,-459.5734815,-459.5734815,-459.5734815,-
 459.5734815,-459.5734815,-459.5734815,-459.5734815,-459.5734815,-459.5
 734815,-459.5734815,-459.5734815,-459.5734815,-459.5734815,-459.573481
 5,-459.5734815,-459.5734815,-459.5734815,-459.5734815,-459.5734815,-45
 9.5734815,-459.5734815,-459.5734815,-459.5734815,-459.5734815,-459.573
 4815,-459.5734815,-459.5734815,-459.5734815,-459.5734815,-459.5734815,
 -459.5734815,-459.5734815,-459.5734815,-459.5734815,-459.5734815,-459.
 5734815,-459.5734815,-459.5734815,-459.5734815,-459.5734815,-459.57348
 15,-459.5734815,-459.5734815,-459.5734815,-459.5734815,-459.5734815,-4
 59.5734815,-459.5734815,-459.5734815,-459.5734815,-459.5734815,-459.57
 34815,-459.5734815,-459.5734815,-459.5734815,-459.5734815,-459.5734815
 ,-459.5734815,-459.5734815,-459.5734815,-459.5734815,-459.5734815,-459
 .5734815,-459.5734815,-459.5734815,-459.5734815,-459.5734815,-459.5734
 815,-459.5734815,-459.5734815,-459.5734815,-459.5734815\MP2=-459.78079
 19,-459.7807919,-459.7807919,-459.7807919,-459.7807919,-459.7807919,-4
 59.7807919,-459.7807919,-459.7807919,-459.7807919,-459.7807919,-459.78
 07919,-459.7807919,-459.7807919,-459.7807919,-459.7807919,-459.7807919
 ,-459.7807919,-459.7807919,-459.7807919,-459.7807919,-459.7807919,-459
 .7807919,-459.7807919,-459.7807919,-459.7807919,-459.7807919,-459.7807
 919,-459.7807919,-459.7807919,-459.7807919,-459.7807919,-459.7807919,-
 459.7807919,-459.7807919,-459.7807919,-459.7807919,-459.7807919,-459.7
 807919,-459.7807919,-459.7807919,-459.7807919,-459.7807919,-459.780791
 9,-459.7807919,-459.7807919,-459.7807919,-459.7807919,-459.7807919,-45
 9.7807919,-459.7807919,-459.7807919,-459.7807919,-459.7807919,-459.780
 7919,-459.7807919,-459.7807919,-459.7807919,-459.7807919,-459.7807919,
 -459.7807919,-459.7807919,-459.7807919,-459.7807919,-459.7807919,-459.
 7807919,-459.7807919,-459.7807919,-459.7807919,-459.7807919,-459.78079
 19,-459.7807919,-459.7807919,-459.7807919,-459.7807919,-459.7807919,-4
 59.7807919,-459.7807919,-459.7807919,-459.7807919,-459.7807919,-459.78
 07919,-459.7807919,-459.7807919,-459.7807919,-459.7807919,-459.7807919
 ,-459.7807919,-459.7807919,-459.7807919,-459.7807919\RMSD=2.395e-09,1.
 951e-10,0.000e+00,0.000e+00,0.000e+00,0.000e+00,0.000e+00,0.000e+00,0.
 000e+00,0.000e+00,0.000e+00,0.000e+00,0.000e+00,0.000e+00,0.000e+00,0.
 000e+00,0.000e+00,0.000e+00,0.000e+00,0.000e+00,0.000e+00,0.000e+00,0.
 000e+00,0.000e+00,0.000e+00,0.000e+00,0.000e+00,0.000e+00,0.000e+00,0.
 000e+00,0.000e+00,0.000e+00,0.000e+00,0.000e+00,0.000e+00,0.000e+00,0.
 000e+00,0.000e+00,0.000e+00,0.000e+00,0.000e+00,0.000e+00,0.000e+00,0.
 000e+00,0.000e+00,0.000e+00,0.000e+00,0.000e+00,0.000e+00,0.000e+00,0.
 000e+00,0.000e+00,0.000e+00,0.000e+00,0.000e+00,0.000e+00,0.000e+00,0.
 000e+00,0.000e+00,0.000e+00,0.000e+00,0.000e+00,0.000e+00,0.000e+00,0.
 000e+00,0.000e+00,0.000e+00,0.000e+00,0.000e+00,0.000e+00,0.000e+00,0.
 000e+00,0.000e+00,0.000e+00,0.000e+00,0.000e+00,0.000e+00,0.000e+00,0.
 000e+00,0.000e+00,0.000e+00,0.000e+00,0.000e+00,0.000e+00,0.000e+00,0.
 000e+00,0.000e+00,0.000e+00,0.000e+00,0.000e+00,0.000e+00\PG=C*V [C*(N
 a1Cl1)]\\@
 The archive entry for this job was punched.


 THE FIRST MORNING OF CREATION WROTE WHAT THE LAST DAWN OF
 RECKONING SHALL READ. -- OMAR KHAYYAM
 Job cpu time:       0 days  5 hours 13 minutes 26.1 seconds.
 Elapsed time:       0 days  0 hours 51 minutes 12.4 seconds.
 File lengths (MBytes):  RWF=     15 Int=      0 D2E=      0 Chk=      5 Scr=      1
 Normal termination of Gaussian 16 at Tue Jan 25 12:13:54 2022.
